# OOMMF OVF 2.0
#
# Segment count: 1
#
# Begin: Segment
# Begin: Header
#
# Title: Oxs_MinDriver::Magnetization
# Desc: Oxs vector field output
# Desc:  MIF source file: /home/ryan/Git/joommf/tools/omfvis/cube_example.mif
# Desc:  Iteration: 3463, State id: 7220
# Desc:  Stage: 14, Stage iteration: 94
# Desc:  Stage simulation time: 0 s
# Desc:  Total simulation time: -2 s
# meshunit: m
# meshtype: rectangular
# xbase: 2.5000000000000001e-09
# ybase: 2.5000000000000001e-09
# zbase: 2.5000000000000001e-09
# xnodes: 10
# ynodes: 10
# znodes: 10
# xstepsize: 5.0000000000000001e-09
# ystepsize: 5.0000000000000001e-09
# zstepsize: 5.0000000000000001e-09
# xmin: 0
# ymin: 0
# zmin: 0
# xmax: 4.9999999999999998e-08
# ymax: 4.9999999999999998e-08
# zmax: 4.9999999999999998e-08
# valuedim: 3
# valuelabels: Magnetization_x Magnetization_y Magnetization_z
# valueunits: A/m A/m A/m
#
# End: Header
#
# Begin: Data Text
 569500.28 -75960.954 556686.05
 605984.10 -50902.570 519800.15
 632654.93 4467.3692 489620.04
 636585.11 85058.682 476995.19
 611185.41 184172.79 482216.53
 551537.83 292802.60 500072.66
 455621.18 398432.44 523126.11
 328632.47 486466.56 543462.04
 189052.82 544551.82 554727.28
 75960.954 569500.28 556686.05
 544551.82 -189052.82 554727.28
 583178.46 -152217.14 526054.01
 613305.40 -79376.554 507499.60
 619424.38 25561.903 505628.35
 591706.59 155168.28 515563.89
 524107.96 294873.99 527598.50
 418410.43 423888.05 534089.54
 286840.24 523248.86 532853.92
 152217.14 583178.46 526054.01
 50902.570 605984.10 519800.15
 486466.56 -328632.47 543462.04
 523248.86 -286840.24 532853.92
 554353.13 -200659.89 540766.32
 561394.68 -69273.027 565718.36
 529067.86 100780.84 591549.17
 449632.99 284384.41 597457.68
 332494.96 443932.74 576516.10
 200659.89 554353.13 540766.32
 79376.555 613305.40 507499.60
 -4467.3692 632654.93 489620.04
 398432.44 -455621.18 523126.11
 423888.05 -418410.43 534089.54
 443932.74 -332494.96 576516.10
 441079.06 -186377.12 640868.81
 397174.07 20166.843 694151.32
 305761.26 250016.28 695702.46
 186377.12 441079.06 640868.81
 69273.027 561394.68 565718.36
 -25561.903 619424.38 505628.35
 -85058.682 636585.11 476995.19
 292802.60 -551537.83 500072.66
 294873.99 -524107.96 527598.50
 284384.41 -449632.99 597457.68
 250016.28 -305761.26 695702.46
 180655.68 -81427.970 775069.68
 81427.970 180655.68 775069.68
 -20166.843 397174.07 694151.32
 -100780.84 529067.86 591549.17
 -155168.28 591706.58 515563.89
 -184172.79 611185.41 482216.53
 184172.79 -611185.41 482216.53
 155168.28 -591706.58 515563.89
 100780.84 -529067.86 591549.17
 20166.843 -397174.07 694151.32
 -81427.970 -180655.68 775069.68
 -180655.68 81427.970 775069.68
 -250016.28 305761.26 695702.46
 -284384.41 449632.99 597457.68
 -294873.99 524107.96 527598.50
 -292802.60 551537.83 500072.66
 85058.682 -636585.11 476995.19
 25561.903 -619424.38 505628.35
 -69273.027 -561394.68 565718.36
 -186377.12 -441079.06 640868.81
 -305761.26 -250016.28 695702.46
 -397174.07 -20166.842 694151.32
 -441079.06 186377.12 640868.81
 -443932.74 332494.97 576516.10
 -423888.06 418410.43 534089.54
 -398432.44 455621.18 523126.11
 4467.3692 -632654.93 489620.04
 -79376.555 -613305.40 507499.60
 -200659.89 -554353.13 540766.32
 -332494.96 -443932.74 576516.10
 -449632.99 -284384.41 597457.68
 -529067.86 -100780.84 591549.17
 -561394.68 69273.027 565718.36
 -554353.13 200659.89 540766.32
 -523248.86 286840.24 532853.92
 -486466.56 328632.47 543462.04
 -50902.570 -605984.10 519800.15
 -152217.14 -583178.46 526054.01
 -286840.24 -523248.86 532853.92
 -418410.43 -423888.06 534089.54
 -524107.96 -294873.99 527598.50
 -591706.58 -155168.28 515563.89
 -619424.38 -25561.903 505628.35
 -613305.40 79376.555 507499.60
 -583178.46 152217.14 526054.01
 -544551.82 189052.82 554727.28
 -75960.955 -569500.28 556686.05
 -189052.82 -544551.82 554727.28
 -328632.47 -486466.56 543462.04
 -455621.18 -398432.44 523126.11
 -551537.83 -292802.60 500072.66
 -611185.41 -184172.79 482216.53
 -636585.11 -85058.682 476995.19
 -632654.93 -4467.3694 489620.04
 -605984.10 50902.570 519800.15
 -569500.28 75960.954 556686.05
 524491.98 -115159.69 592997.81
 566741.43 -91228.370 557208.70
 601879.59 -38379.554 525611.99
 614777.23 37901.450 510502.14
 599293.28 131559.10 513361.25
 551016.78 235315.33 530101.12
 467352.98 338807.47 553886.89
 351867.94 428826.42 576451.95
 221427.93 492633.87 590153.83
 115159.69 524491.98 592997.81
 492633.87 -221427.93 590153.83
 535885.77 -183135.67 565055.54
 572791.90 -112784.45 546981.82
 586496.21 -13826.931 543903.49
 568673.56 107749.15 552268.50
 514174.58 240333.65 563794.50
 423433.99 366576.86 571248.69
 306043.86 468839.17 571425.40
 183135.67 535885.77 565055.54
 91228.371 566741.43 557208.70
 428826.42 -351867.94 576451.95
 468839.17 -306043.86 571425.40
 503799.84 -221151.56 580756.15
 515915.03 -97018.338 603671.37
 493862.54 60753.614 626425.41
 431830.10 232495.54 632035.27
 335244.34 388090.36 614000.90
 221151.56 503799.84 580756.15
 112784.45 572791.90 546981.82
 38379.554 601879.59 525611.99
 338807.47 -467352.98 553886.89
 366576.86 -423433.99 571248.69
 388090.36 -335244.34 614000.90
 388457.21 -194962.09 671632.92
 356440.06 -5272.1964 716186.21
 288298.72 204706.12 717620.55
 194962.09 388457.20 671632.92
 97018.339 515915.03 603671.37
 13826.932 586496.21 543903.49
 -37901.450 614777.24 510502.14
 235315.33 -551016.78 530101.12
 240333.65 -514174.57 563794.50
 232495.54 -431830.10 632035.27
 204706.12 -288298.72 717620.55
 152986.44 -81648.421 780979.31
 81648.421 152986.44 780979.31
 5272.1963 356440.07 716186.21
 -60753.614 493862.53 626425.41
 -107749.15 568673.57 552268.50
 -131559.10 599293.27 513361.25
 131559.10 -599293.28 513361.25
 107749.15 -568673.56 552268.50
 60753.614 -493862.54 626425.41
 -5272.1961 -356440.06 716186.21
 -81648.422 -152986.44 780979.31
 -152986.44 81648.423 780979.31
 -204706.12 288298.72 717620.55
 -232495.54 431830.11 632035.27
 -240333.65 514174.57 563794.50
 -235315.33 551016.78 530101.12
 37901.450 -614777.24 510502.14
 -13826.931 -586496.21 543903.49
 -97018.338 -515915.03 603671.37
 -194962.09 -388457.21 671632.92
 -288298.72 -204706.12 717620.55
 -356440.06 5272.1945 716186.21
 -388457.21 194962.09 671632.92
 -388090.36 335244.34 614000.90
 -366576.86 423433.99 571248.69
 -338807.47 467352.98 553886.89
 -38379.554 -601879.59 525611.99
 -112784.45 -572791.90 546981.82
 -221151.56 -503799.84 580756.15
 -335244.34 -388090.36 614000.90
 -431830.10 -232495.54 632035.27
 -493862.54 -60753.613 626425.41
 -515915.03 97018.336 603671.37
 -503799.84 221151.56 580756.15
 -468839.17 306043.86 571425.40
 -428826.42 351867.94 576451.95
 -91228.371 -566741.43 557208.70
 -183135.67 -535885.77 565055.54
 -306043.86 -468839.17 571425.40
 -423433.99 -366576.86 571248.69
 -514174.57 -240333.65 563794.50
 -568673.56 -107749.15 552268.50
 -586496.21 13826.933 543903.49
 -572791.90 112784.45 546981.82
 -535885.77 183135.67 565055.54
 -492633.87 221427.93 590153.83
 -115159.69 -524491.98 592997.81
 -221427.93 -492633.87 590153.83
 -351867.94 -428826.42 576451.95
 -467352.98 -338807.47 553886.89
 -551016.78 -235315.33 530101.12
 -599293.28 -131559.10 513361.25
 -614777.24 -37901.450 510502.14
 -601879.59 38379.554 525611.99
 -566741.43 91228.370 557208.70
 -524491.98 115159.69 592997.81
 464645.55 -167478.96 629329.26
 513173.23 -141361.06 597218.79
 558033.74 -88384.341 566380.22
 581776.16 -14868.371 548922.06
 578326.09 73376.300 547863.90
 544240.97 170622.97 560971.99
 477204.54 269167.28 582944.94
 379364.35 358444.37 606300.52
 264382.54 426539.19 623029.85
 167478.96 464645.55 629329.26
 426539.19 -264382.54 623029.85
 473901.52 -224385.63 604208.93
 518736.11 -154790.87 589026.86
 542462.06 -60512.487 584870.20
 537459.57 52803.255 590211.00
 499672.72 176245.59 599386.90
 428757.93 296808.50 606688.84
 331247.50 399925.02 608551.62
 224385.63 473901.52 604208.93
 141361.06 513173.23 597218.79
 358444.37 -379364.35 606300.52
 399925.02 -331247.50 608551.61
 439764.42 -246895.14 621007.28
 459984.83 -129194.18 641656.31
 451566.06 15827.690 660179.96
 410178.12 173319.66 664615.83
 338268.90 321287.50 649883.44
 246895.14 439764.42 621007.28
 154790.87 518736.10 589026.86
 88384.341 558033.74 566380.22
 269167.28 -477204.54 582944.94
 296808.50 -428757.93 606688.84
 321287.50 -338268.91 649883.44
 329020.80 -203982.83 700097.37
 312522.92 -31666.098 735749.06
 269192.21 156783.17 736854.53
 203982.83 329020.80 700097.36
 129194.18 459984.82 641656.31
 60512.488 542462.06 584870.20
 14868.371 581776.16 548922.06
 170622.97 -544240.97 560971.99
 176245.59 -499672.73 599386.90
 173319.66 -410178.12 664615.83
 156783.17 -269192.21 736854.53
 125452.94 -81642.828 785872.77
 81642.827 125452.94 785872.77
 31666.098 312522.92 735749.06
 -15827.690 451566.06 660179.96
 -52803.256 537459.57 590211.00
 -73376.300 578326.09 547863.90
 73376.300 -578326.09 547863.90
 52803.256 -537459.57 590211.00
 15827.689 -451566.06 660179.96
 -31666.098 -312522.92 735749.06
 -81642.827 -125452.94 785872.77
 -125452.94 81642.824 785872.77
 -156783.17 269192.21 736854.52
 -173319.66 410178.12 664615.84
 -176245.59 499672.73 599386.90
 -170622.97 544240.96 560971.99
 -14868.371 -581776.16 548922.06
 -60512.488 -542462.06 584870.20
 -129194.18 -459984.82 641656.31
 -203982.83 -329020.79 700097.37
 -269192.21 -156783.17 736854.53
 -312522.92 31666.101 735749.06
 -329020.80 203982.83 700097.37
 -321287.50 338268.91 649883.44
 -296808.50 428757.93 606688.84
 -269167.28 477204.54 582944.94
 -88384.341 -558033.74 566380.22
 -154790.87 -518736.10 589026.86
 -246895.14 -439764.42 621007.28
 -338268.91 -321287.50 649883.44
 -410178.12 -173319.66 664615.83
 -451566.06 -15827.693 660179.96
 -459984.82 129194.18 641656.31
 -439764.43 246895.14 621007.28
 -399925.02 331247.51 608551.61
 -358444.38 379364.34 606300.52
 -141361.06 -513173.23 597218.79
 -224385.63 -473901.52 604208.93
 -331247.50 -399925.02 608551.62
 -428757.93 -296808.50 606688.84
 -499672.72 -176245.59 599386.90
 -537459.57 -52803.254 590211.00
 -542462.06 60512.486 584870.20
 -518736.10 154790.87 589026.86
 -473901.52 224385.63 604208.93
 -426539.19 264382.54 623029.85
 -167478.96 -464645.55 629329.26
 -264382.54 -426539.19 623029.85
 -379364.35 -358444.37 606300.52
 -477204.54 -269167.28 582944.94
 -544240.97 -170622.97 560971.99
 -578326.09 -73376.301 547863.90
 -581776.16 14868.372 548922.06
 -558033.74 88384.340 566380.22
 -513173.23 141361.06 597218.79
 -464645.55 167478.96 629329.26
 400128.02 -222678.39 655981.63
 456145.41 -192395.20 628422.99
 511663.12 -136626.07 599611.68
 547024.34 -63110.779 580328.70
 555951.00 21924.733 574837.19
 535994.38 113533.67 582940.93
 485666.49 206070.49 601384.25
 406382.27 291608.60 624353.96
 308627.75 359796.38 644434.23
 222678.39 400128.02 655981.63
 359796.38 -308627.75 644434.23
 412059.39 -266519.17 631802.65
 465701.01 -195694.98 620343.49
 500453.22 -103131.04 615557.11
 508611.27 4802.3140 617488.06
 486914.67 120569.87 623199.01
 434940.75 234479.21 629162.97
 357057.28 335265.37 632540.30
 266519.17 412059.39 631802.66
 192395.20 456145.41 628422.99
 291608.60 -406382.27 624353.96
 335265.37 -357057.28 632540.30
 381267.63 -272469.46 648379.05
 411189.46 -158442.02 667697.05
 416527.71 -22229.873 682649.62
 393544.09 123945.71 685390.77
 343174.73 263741.46 672808.70
 272469.46 381267.63 648379.05
 195694.99 465701.01 620343.49
 136626.07 511663.12 599611.68
 206070.49 -485666.49 601384.25
 234479.21 -434940.76 629162.97
 263741.46 -343174.73 672808.70
 280813.17 -213283.45 718090.62
 279092.23 -53265.619 747843.77
 255926.83 119277.80 748514.71
 213283.45 280813.17 718090.62
 158442.03 411189.46 667697.05
 103131.04 500453.22 615557.11
 63110.779 547024.34 580328.70
 113533.67 -535994.38 582940.93
 120569.87 -486914.67 623199.02
 123945.71 -393544.09 685390.77
 119277.80 -255926.83 748514.71
 105287.31 -82474.988 788741.06
 82474.989 105287.31 788741.06
 53265.619 279092.23 747843.77
 22229.872 416527.71 682649.62
 -4802.3131 508611.28 617488.06
 -21924.733 555951.00 574837.19
 21924.733 -555951.00 574837.19
 4802.3127 -508611.28 617488.06
 -22229.872 -416527.71 682649.62
 -53265.619 -279092.23 747843.77
 -82474.990 -105287.31 788741.06
 -105287.31 82474.993 788741.06
 -119277.80 255926.83 748514.71
 -123945.71 393544.09 685390.77
 -120569.87 486914.67 623199.02
 -113533.67 535994.38 582940.93
 -63110.779 -547024.34 580328.70
 -103131.04 -500453.22 615557.11
 -158442.03 -411189.46 667697.05
 -213283.45 -280813.17 718090.62
 -255926.83 -119277.80 748514.71
 -279092.23 53265.615 747843.77
 -280813.17 213283.46 718090.62
 -263741.46 343174.73 672808.70
 -234479.21 434940.76 629162.97
 -206070.49 485666.49 601384.25
 -136626.07 -511663.12 599611.68
 -195694.99 -465701.01 620343.49
 -272469.46 -381267.63 648379.05
 -343174.73 -263741.46 672808.70
 -393544.09 -123945.71 685390.77
 -416527.71 22229.877 682649.62
 -411189.46 158442.02 667697.05
 -381267.63 272469.46 648379.05
 -335265.37 357057.28 632540.30
 -291608.60 406382.27 624353.96
 -192395.20 -456145.41 628422.99
 -266519.17 -412059.39 631802.66
 -357057.28 -335265.37 632540.30
 -434940.75 -234479.21 629162.97
 -486914.67 -120569.87 623199.01
 -508611.28 -4802.3163 617488.06
 -500453.22 103131.04 615557.11
 -465701.01 195694.98 620343.49
 -412059.39 266519.17 631802.65
 -359796.38 308627.75 644434.23
 -222678.39 -400128.02 655981.63
 -308627.75 -359796.38 644434.23
 -406382.27 -291608.60 624353.96
 -485666.49 -206070.48 601384.25
 -535994.38 -113533.67 582940.93
 -555951.00 -21924.732 574837.19
 -547024.34 63110.778 580328.70
 -511663.12 136626.07 599611.68
 -456145.41 192395.20 628422.99
 -400128.02 222678.39 655981.63
 337446.24 -278744.37 669650.37
 402270.62 -243814.50 647095.70
 469882.67 -183636.30 620876.79
 517951.67 -107530.90 600135.96
 539567.31 -22725.658 590212.39
 533028.42 65731.533 592925.01
 497833.27 153246.81 607188.15
 435300.78 233784.46 629172.52
 353658.60 298677.01 652470.42
 278744.37 337446.24 669650.37
 298677.01 -353658.60 652470.42
 357016.62 -309505.49 645558.28
 420862.67 -236179.64 638039.02
 467779.59 -142453.18 633158.23
 489204.69 -36049.734 631964.55
 482179.82 75490.995 633879.91
 446536.25 184147.06 637726.62
 385532.80 281106.44 642139.88
 309505.49 357016.62 645558.28
 243814.50 402270.62 647095.70
 233784.47 -435300.78 629172.52
 281106.44 -385532.81 642139.88
 334994.76 -300169.05 661571.65
 375946.19 -186826.21 680999.58
 394723.27 -54236.441 693723.25
 387423.71 85908.484 694638.47
 354281.32 219977.94 682711.11
 300169.05 334994.76 661571.65
 236179.63 420862.67 638039.02
 183636.30 469882.67 620876.79
 153246.81 -497833.27 607188.15
 184147.06 -446536.24 637726.62
 219977.93 -354281.32 682711.11
 247382.24 -226282.83 726359.49
 259134.72 -72024.045 753433.30
 251931.31 92381.127 753655.32
 226282.83 247382.24 726359.49
 186826.20 375946.19 680999.58
 142453.18 467779.59 633158.23
 107530.90 517951.67 600135.96
 65731.534 -533028.42 592925.01
 75490.994 -482179.82 633879.90
 85908.486 -387423.71 694638.47
 92381.126 -251931.31 753655.32
 92566.170 -85574.450 790005.39
 85574.449 92566.172 790005.39
 72024.045 259134.72 753433.30
 54236.442 394723.27 693723.25
 36049.733 489204.69 631964.55
 22725.659 539567.31 590212.39
 -22725.659 -539567.31 590212.39
 -36049.733 -489204.69 631964.55
 -54236.442 -394723.27 693723.25
 -72024.044 -259134.72 753433.30
 -85574.449 -92566.167 790005.39
 -92566.170 85574.446 790005.39
 -92381.127 251931.31 753655.32
 -85908.485 387423.71 694638.47
 -75490.994 482179.82 633879.91
 -65731.534 533028.42 592925.01
 -107530.90 -517951.67 600135.96
 -142453.18 -467779.59 633158.23
 -186826.20 -375946.19 680999.58
 -226282.83 -247382.24 726359.49
 -251931.31 -92381.131 753655.32
 -259134.72 72024.049 753433.30
 -247382.24 226282.83 726359.49
 -219977.94 354281.32 682711.11
 -184147.06 446536.25 637726.62
 -153246.81 497833.27 607188.15
 -183636.30 -469882.67 620876.79
 -236179.63 -420862.67 638039.02
 -300169.05 -334994.76 661571.65
 -354281.31 -219977.94 682711.11
 -387423.71 -85908.481 694638.47
 -394723.27 54236.438 693723.25
 -375946.19 186826.21 680999.58
 -334994.76 300169.05 661571.65
 -281106.44 385532.81 642139.88
 -233784.46 435300.78 629172.52
 -243814.50 -402270.62 647095.70
 -309505.49 -357016.62 645558.27
 -385532.80 -281106.45 642139.88
 -446536.25 -184147.06 637726.62
 -482179.82 -75490.998 633879.91
 -489204.69 36049.736 631964.55
 -467779.59 142453.18 633158.23
 -420862.67 236179.64 638039.02
 -357016.62 309505.49 645558.28
 -298677.01 353658.60 652470.42
 -278744.37 -337446.24 669650.37
 -353658.59 -298677.01 652470.42
 -435300.78 -233784.46 629172.52
 -497833.27 -153246.81 607188.15
 -533028.42 -65731.532 592925.01
 -539567.31 22725.657 590212.39
 -517951.67 107530.90 600135.96
 -469882.67 183636.30 620876.79
 -402270.62 243814.50 647095.70
 -337446.24 278744.37 669650.37
 278744.37 -337446.24 669650.37
 353658.60 -298677.01 652470.42
 435300.78 -233784.47 629172.52
 497833.27 -153246.81 607188.15
 533028.42 -65731.533 592925.01
 539567.31 22725.658 590212.39
 517951.67 107530.90 600135.96
 469882.67 183636.30 620876.79
 402270.62 243814.50 647095.70
 337446.24 278744.37 669650.37
 243814.50 -402270.62 647095.70
 309505.49 -357016.62 645558.28
 385532.81 -281106.44 642139.88
 446536.25 -184147.06 637726.62
 482179.82 -75490.995 633879.90
 489204.69 36049.734 631964.55
 467779.59 142453.18 633158.23
 420862.67 236179.63 638039.02
 357016.62 309505.49 645558.28
 298677.01 353658.60 652470.42
 183636.30 -469882.67 620876.79
 236179.64 -420862.67 638039.02
 300169.04 -334994.76 661571.65
 354281.32 -219977.93 682711.11
 387423.71 -85908.484 694638.47
 394723.27 54236.440 693723.25
 375946.19 186826.21 680999.58
 334994.76 300169.05 661571.65
 281106.44 385532.80 642139.88
 233784.46 435300.78 629172.52
 107530.90 -517951.67 600135.96
 142453.18 -467779.59 633158.23
 186826.21 -375946.19 680999.58
 226282.83 -247382.24 726359.49
 251931.31 -92381.128 753655.32
 259134.72 72024.047 753433.30
 247382.24 226282.83 726359.49
 219977.94 354281.32 682711.11
 184147.06 446536.25 637726.62
 153246.81 497833.27 607188.15
 22725.658 -539567.31 590212.39
 36049.736 -489204.69 631964.55
 54236.439 -394723.27 693723.25
 72024.047 -259134.72 753433.30
 85574.448 -92566.169 790005.39
 92566.170 85574.447 790005.39
 92381.128 251931.31 753655.32
 85908.483 387423.71 694638.47
 75490.996 482179.82 633879.90
 65731.533 533028.42 592925.01
 -65731.533 -533028.42 592925.01
 -75490.997 -482179.82 633879.90
 -85908.482 -387423.71 694638.47
 -92381.129 -251931.31 753655.32
 -92566.169 -85574.450 790005.39
 -85574.448 92566.172 790005.39
 -72024.046 259134.72 753433.30
 -54236.440 394723.27 693723.25
 -36049.735 489204.69 631964.55
 -22725.658 539567.31 590212.39
 -153246.81 -497833.27 607188.15
 -184147.06 -446536.25 637726.62
 -219977.94 -354281.32 682711.11
 -247382.24 -226282.83 726359.49
 -259134.72 -72024.043 753433.30
 -251931.31 92381.125 753655.32
 -226282.83 247382.24 726359.49
 -186826.21 375946.19 680999.58
 -142453.18 467779.59 633158.23
 -107530.90 517951.67 600135.96
 -233784.46 -435300.78 629172.52
 -281106.45 -385532.80 642139.88
 -334994.76 -300169.05 661571.65
 -375946.20 -186826.20 680999.58
 -394723.26 -54236.443 693723.25
 -387423.71 85908.486 694638.47
 -354281.32 219977.93 682711.11
 -300169.05 334994.76 661571.65
 -236179.63 420862.67 638039.02
 -183636.30 469882.67 620876.79
 -298677.01 -353658.60 652470.42
 -357016.62 -309505.49 645558.28
 -420862.67 -236179.63 638039.02
 -467779.59 -142453.18 633158.23
 -489204.69 -36049.732 631964.55
 -482179.82 75490.993 633879.91
 -446536.25 184147.06 637726.62
 -385532.80 281106.44 642139.88
 -309505.49 357016.62 645558.27
 -243814.50 402270.62 647095.70
 -337446.24 -278744.37 669650.37
 -402270.62 -243814.50 647095.70
 -469882.67 -183636.30 620876.79
 -517951.68 -107530.90 600135.96
 -539567.31 -22725.659 590212.39
 -533028.42 65731.534 592925.01
 -497833.27 153246.81 607188.15
 -435300.78 233784.47 629172.52
 -353658.60 298677.01 652470.42
 -278744.37 337446.24 669650.37
 222678.39 -400128.02 655981.63
 308627.75 -359796.38 644434.23
 406382.27 -291608.60 624353.96
 485666.49 -206070.49 601384.25
 535994.38 -113533.67 582940.93
 555951.00 -21924.733 574837.19
 547024.34 63110.779 580328.70
 511663.12 136626.07 599611.68
 456145.41 192395.20 628422.99
 400128.02 222678.39 655981.63
 192395.20 -456145.41 628422.99
 266519.17 -412059.39 631802.66
 357057.28 -335265.37 632540.30
 434940.76 -234479.21 629162.97
 486914.67 -120569.87 623199.01
 508611.28 -4802.3138 617488.06
 500453.22 103131.04 615557.11
 465701.01 195694.98 620343.49
 412059.39 266519.17 631802.66
 359796.38 308627.75 644434.23
 136626.07 -511663.12 599611.68
 195694.98 -465701.01 620343.49
 272469.46 -381267.63 648379.05
 343174.73 -263741.46 672808.70
 393544.09 -123945.71 685390.77
 416527.71 22229.874 682649.62
 411189.46 158442.02 667697.05
 381267.63 272469.46 648379.05
 335265.37 357057.28 632540.30
 291608.60 406382.27 624353.96
 63110.778 -547024.34 580328.70
 103131.04 -500453.22 615557.11
 158442.02 -411189.46 667697.05
 213283.46 -280813.17 718090.62
 255926.83 -119277.80 748514.71
 279092.23 53265.618 747843.77
 280813.17 213283.45 718090.62
 263741.46 343174.73 672808.70
 234479.21 434940.76 629162.97
 206070.49 485666.49 601384.25
 -21924.732 -555951.00 574837.19
 -4802.3156 -508611.27 617488.06
 22229.875 -416527.71 682649.62
 53265.617 -279092.23 747843.77
 82474.991 -105287.31 788741.06
 105287.31 82474.991 788741.06
 119277.80 255926.83 748514.71
 123945.71 393544.09 685390.77
 120569.87 486914.67 623199.02
 113533.67 535994.38 582940.93
 -113533.67 -535994.38 582940.93
 -120569.87 -486914.67 623199.01
 -123945.71 -393544.09 685390.77
 -119277.80 -255926.83 748514.71
 -105287.31 -82474.989 788741.06
 -82474.990 105287.31 788741.06
 -53265.618 279092.23 747843.77
 -22229.874 416527.71 682649.62
 4802.3145 508611.28 617488.06
 21924.733 555951.00 574837.19
 -206070.48 -485666.49 601384.25
 -234479.21 -434940.75 629162.97
 -263741.46 -343174.73 672808.70
 -280813.17 -213283.45 718090.62
 -279092.23 -53265.619 747843.77
 -255926.83 119277.80 748514.71
 -213283.45 280813.17 718090.62
 -158442.02 411189.46 667697.05
 -103131.04 500453.22 615557.12
 -63110.778 547024.34 580328.70
 -291608.60 -406382.27 624353.96
 -335265.37 -357057.28 632540.30
 -381267.64 -272469.46 648379.04
 -411189.45 -158442.02 667697.06
 -416527.71 -22229.872 682649.62
 -393544.09 123945.71 685390.77
 -343174.73 263741.46 672808.70
 -272469.46 381267.63 648379.05
 -195694.98 465701.01 620343.48
 -136626.07 511663.12 599611.68
 -359796.38 -308627.75 644434.23
 -412059.39 -266519.17 631802.65
 -465701.01 -195694.98 620343.49
 -500453.22 -103131.04 615557.11
 -508611.27 4802.3133 617488.06
 -486914.67 120569.87 623199.01
 -434940.75 234479.21 629162.97
 -357057.28 335265.37 632540.30
 -266519.17 412059.39 631802.66
 -192395.20 456145.41 628422.99
 -400128.02 -222678.39 655981.63
 -456145.41 -192395.20 628422.99
 -511663.12 -136626.07 599611.68
 -547024.34 -63110.779 580328.70
 -555951.00 21924.733 574837.19
 -535994.38 113533.67 582940.93
 -485666.49 206070.49 601384.25
 -406382.27 291608.60 624353.96
 -308627.75 359796.38 644434.23
 -222678.39 400128.02 655981.63
 167478.96 -464645.55 629329.26
 264382.54 -426539.19 623029.85
 379364.35 -358444.38 606300.52
 477204.54 -269167.28 582944.94
 544240.97 -170622.97 560971.99
 578326.09 -73376.300 547863.90
 581776.16 14868.371 548922.06
 558033.74 88384.341 566380.22
 513173.23 141361.06 597218.79
 464645.55 167478.96 629329.26
 141361.06 -513173.23 597218.79
 224385.63 -473901.52 604208.93
 331247.51 -399925.02 608551.62
 428757.93 -296808.50 606688.84
 499672.73 -176245.59 599386.90
 537459.57 -52803.256 590211.00
 542462.06 60512.487 584870.20
 518736.10 154790.87 589026.86
 473901.52 224385.63 604208.93
 426539.19 264382.54 623029.85
 88384.340 -558033.74 566380.22
 154790.87 -518736.11 589026.86
 246895.14 -439764.42 621007.28
 338268.91 -321287.50 649883.44
 410178.12 -173319.66 664615.83
 451566.06 -15827.690 660179.96
 459984.82 129194.18 641656.31
 439764.43 246895.14 621007.28
 399925.02 331247.51 608551.61
 358444.38 379364.34 606300.52
 14868.372 -581776.16 548922.06
 60512.486 -542462.06 584870.20
 129194.18 -459984.83 641656.31
 203982.83 -329020.80 700097.37
 269192.21 -156783.17 736854.53
 312522.92 31666.098 735749.06
 329020.80 203982.83 700097.37
 321287.50 338268.91 649883.44
 296808.50 428757.93 606688.84
 269167.28 477204.54 582944.94
 -73376.301 -578326.09 547863.90
 -52803.254 -537459.57 590211.00
 -15827.692 -451566.06 660179.96
 31666.100 -312522.92 735749.06
 81642.826 -125452.94 785872.77
 125452.94 81642.826 785872.77
 156783.17 269192.21 736854.53
 173319.66 410178.12 664615.84
 176245.59 499672.73 599386.90
 170622.97 544240.96 560971.99
 -170622.97 -544240.97 560971.99
 -176245.59 -499672.72 599386.90
 -173319.66 -410178.12 664615.83
 -156783.17 -269192.21 736854.53
 -125452.94 -81642.827 785872.77
 -81642.827 125452.94 785872.77
 -31666.099 312522.92 735749.06
 15827.691 451566.06 660179.96
 52803.255 537459.57 590211.01
 73376.300 578326.09 547863.90
 -269167.28 -477204.54 582944.94
 -296808.50 -428757.93 606688.84
 -321287.50 -338268.90 649883.44
 -329020.79 -203982.83 700097.37
 -312522.92 -31666.098 735749.06
 -269192.21 156783.17 736854.53
 -203982.83 329020.80 700097.36
 -129194.18 459984.82 641656.31
 -60512.486 542462.06 584870.20
 -14868.372 581776.16 548922.06
 -358444.37 -379364.35 606300.52
 -399925.02 -331247.50 608551.61
 -439764.42 -246895.14 621007.28
 -459984.83 -129194.18 641656.31
 -451566.06 15827.690 660179.96
 -410178.12 173319.66 664615.83
 -338268.91 321287.50 649883.44
 -246895.14 439764.43 621007.28
 -154790.87 518736.10 589026.86
 -88384.340 558033.75 566380.21
 -426539.19 -264382.54 623029.85
 -473901.52 -224385.63 604208.93
 -518736.11 -154790.87 589026.86
 -542462.06 -60512.487 584870.20
 -537459.57 52803.255 590211.00
 -499672.73 176245.59 599386.90
 -428757.93 296808.50 606688.84
 -331247.51 399925.02 608551.62
 -224385.63 473901.52 604208.93
 -141361.06 513173.23 597218.79
 -464645.55 -167478.96 629329.26
 -513173.23 -141361.06 597218.79
 -558033.74 -88384.341 566380.22
 -581776.16 -14868.371 548922.06
 -578326.09 73376.300 547863.90
 -544240.97 170622.97 560971.99
 -477204.54 269167.28 582944.94
 -379364.34 358444.38 606300.52
 -264382.54 426539.19 623029.85
 -167478.96 464645.55 629329.26
 115159.69 -524491.98 592997.81
 221427.93 -492633.87 590153.83
 351867.94 -428826.42 576451.95
 467352.98 -338807.47 553886.89
 551016.78 -235315.33 530101.12
 599293.28 -131559.10 513361.25
 614777.23 -37901.450 510502.14
 601879.59 38379.554 525611.99
 566741.43 91228.370 557208.70
 524491.98 115159.69 592997.81
 91228.370 -566741.43 557208.70
 183135.67 -535885.77 565055.54
 306043.86 -468839.17 571425.40
 423433.99 -366576.86 571248.69
 514174.57 -240333.65 563794.50
 568673.56 -107749.15 552268.50
 586496.21 13826.931 543903.49
 572791.90 112784.45 546981.82
 535885.77 183135.67 565055.54
 492633.87 221427.93 590153.83
 38379.554 -601879.59 525611.99
 112784.45 -572791.90 546981.82
 221151.56 -503799.84 580756.15
 335244.34 -388090.37 614000.90
 431830.11 -232495.54 632035.27
 493862.54 -60753.615 626425.41
 515915.03 97018.338 603671.37
 503799.84 221151.56 580756.15
 468839.17 306043.86 571425.40
 428826.42 351867.94 576451.95
 -37901.450 -614777.23 510502.14
 13826.933 -586496.21 543903.49
 97018.337 -515915.03 603671.37
 194962.09 -388457.21 671632.92
 288298.72 -204706.12 717620.55
 356440.06 5272.1966 716186.21
 388457.20 194962.09 671632.92
 388090.37 335244.34 614000.90
 366576.86 423433.99 571248.69
 338807.47 467352.98 553886.89
 -131559.10 -599293.28 513361.25
 -107749.15 -568673.56 552268.50
 -60753.612 -493862.54 626425.41
 5272.1946 -356440.06 716186.21
 81648.423 -152986.44 780979.31
 152986.44 81648.422 780979.31
 204706.12 288298.72 717620.55
 232495.54 431830.11 632035.27
 240333.65 514174.57 563794.50
 235315.33 551016.78 530101.12
 -235315.34 -551016.78 530101.12
 -240333.65 -514174.58 563794.50
 -232495.54 -431830.10 632035.27
 -204706.12 -288298.72 717620.55
 -152986.44 -81648.422 780979.31
 -81648.422 152986.44 780979.31
 -5272.1954 356440.06 716186.21
 60753.613 493862.53 626425.41
 107749.15 568673.57 552268.50
 131559.10 599293.27 513361.25
 -338807.47 -467352.98 553886.89
 -366576.86 -423433.99 571248.69
 -388090.36 -335244.34 614000.90
 -388457.21 -194962.09 671632.92
 -356440.06 -5272.1960 716186.21
 -288298.72 204706.12 717620.55
 -194962.09 388457.20 671632.92
 -97018.336 515915.03 603671.37
 -13826.933 586496.21 543903.49
 37901.451 614777.24 510502.14
 -428826.42 -351867.94 576451.95
 -468839.17 -306043.86 571425.40
 -503799.84 -221151.56 580756.15
 -515915.03 -97018.338 603671.37
 -493862.54 60753.614 626425.41
 -431830.11 232495.54 632035.27
 -335244.34 388090.37 614000.90
 -221151.56 503799.84 580756.15
 -112784.45 572791.90 546981.82
 -38379.555 601879.59 525611.99
 -492633.87 -221427.93 590153.83
 -535885.77 -183135.67 565055.54
 -572791.90 -112784.45 546981.82
 -586496.21 -13826.932 543903.49
 -568673.56 107749.15 552268.50
 -514174.57 240333.65 563794.50
 -423433.99 366576.86 571248.69
 -306043.86 468839.17 571425.40
 -183135.68 535885.77 565055.54
 -91228.370 566741.43 557208.70
 -524491.98 -115159.69 592997.81
 -566741.43 -91228.371 557208.70
 -601879.59 -38379.554 525611.99
 -614777.23 37901.450 510502.14
 -599293.27 131559.10 513361.25
 -551016.78 235315.33 530101.12
 -467352.98 338807.47 553886.89
 -351867.94 428826.42 576451.95
 -221427.93 492633.87 590153.83
 -115159.69 524491.98 592997.81
 75960.954 -569500.28 556686.05
 189052.82 -544551.82 554727.28
 328632.47 -486466.56 543462.04
 455621.18 -398432.44 523126.11
 551537.83 -292802.60 500072.66
 611185.41 -184172.79 482216.53
 636585.11 -85058.682 476995.19
 632654.93 -4467.3693 489620.04