# OOMMF OVF 2.0
#
# Segment count: 1
#
# Begin: Segment
# Begin: Header
#
# Title: Oxs_MinDriver::Magnetization
# Desc: Oxs vector field output
# Desc:  MIF source file: /home/ryan/Git/joommf/tools/omfvis/cube_example.mif
# Desc:  Iteration: 3368, State id: 7016
# Desc:  Stage: 13, Stage iteration: 95
# Desc:  Stage simulation time: 0 s
# Desc:  Total simulation time: -2 s
# meshunit: m
# meshtype: rectangular
# xbase: 2.5000000000000001e-09
# ybase: 2.5000000000000001e-09
# zbase: 2.5000000000000001e-09
# xnodes: 10
# ynodes: 10
# znodes: 10
# xstepsize: 5.0000000000000001e-09
# ystepsize: 5.0000000000000001e-09
# zstepsize: 5.0000000000000001e-09
# xmin: 0
# ymin: 0
# zmin: 0
# xmax: 4.9999999999999998e-08
# ymax: 4.9999999999999998e-08
# zmax: 4.9999999999999998e-08
# valuedim: 3
# valuelabels: Magnetization_x Magnetization_y Magnetization_z
# valueunits: A/m A/m A/m
#
# End: Header
#
# Begin: Data Text
 582661.39 -98460.049 539269.24
 620641.46 -71020.977 499760.14
 649047.40 -12070.764 467537.99
 654767.74 72489.243 453899.23
 631319.74 175678.27 458881.82
 573755.10 288537.45 477023.30
 479709.68 398696.29 500919.05
 353656.67 491574.09 522763.69
 213402.53 554319.53 535900.38
 98460.049 582661.39 539269.24
 554319.53 -213402.53 535900.38
 595081.95 -173878.86 505612.12
 628008.27 -97029.160 485994.81
 636961.41 12618.083 483860.46
 611758.94 147459.30 493970.39
 546013.31 292674.35 506173.09
 441274.52 427002.55 512782.23
 309621.57 531151.73 511871.39
 173878.86 595081.95 505612.12
 71020.977 620641.46 499760.14
 491574.09 -353656.67 522763.69
 531151.73 -309621.57 511871.39
 566400.92 -219785.24 520465.61
 577828.41 -83159.439 546990.71
 548896.24 94023.884 574345.21
 470778.35 285585.52 580352.18
 353048.22 451694.75 557968.47
 219785.24 566400.91 520465.61
 97029.159 628008.27 485994.81
 12070.764 649047.40 467537.99
 398696.29 -479709.67 500919.05
 427002.55 -441274.52 512782.23
 451694.75 -353048.22 557968.47
 454097.01 -202033.48 626879.87
 414027.50 13702.549 684392.78
 323168.30 254939.75 685979.57
 202033.49 454097.01 626879.87
 83159.438 577828.41 546990.71
 -12618.083 636961.41 483860.46
 -72489.243 654767.74 453899.23
 288537.45 -573755.10 477023.30
 292674.35 -546013.31 506173.09
 285585.52 -470778.35 580352.18
 254939.75 -323168.30 685979.57
 187884.59 -88567.980 772563.97
 88567.980 187884.59 772563.97
 -13702.549 414027.50 684392.78
 -94023.884 548896.24 574345.21
 -147459.30 611758.94 493970.39
 -175678.27 631319.74 458881.82
 175678.27 -631319.74 458881.82
 147459.30 -611758.94 493970.39
 94023.885 -548896.24 574345.21
 13702.548 -414027.50 684392.78
 -88567.979 -187884.59 772563.97
 -187884.59 88567.979 772563.97
 -254939.75 323168.30 685979.57
 -285585.52 470778.35 580352.18
 -292674.35 546013.31 506173.09
 -288537.45 573755.10 477023.30
 72489.243 -654767.74 453899.23
 12618.083 -636961.41 483860.46
 -83159.439 -577828.41 546990.71
 -202033.48 -454097.01 626879.87
 -323168.30 -254939.75 685979.57
 -414027.50 -13702.548 684392.78
 -454097.01 202033.48 626879.87
 -451694.75 353048.22 557968.47
 -427002.55 441274.52 512782.23
 -398696.29 479709.67 500919.05
 -12070.764 -649047.40 467537.99
 -97029.159 -628008.27 485994.81
 -219785.24 -566400.91 520465.61
 -353048.22 -451694.75 557968.47
 -470778.35 -285585.52 580352.18
 -548896.24 -94023.885 574345.21
 -577828.41 83159.439 546990.71
 -566400.91 219785.24 520465.61
 -531151.73 309621.57 511871.39
 -491574.09 353656.67 522763.69
 -71020.976 -620641.46 499760.14
 -173878.86 -595081.95 505612.12
 -309621.57 -531151.73 511871.39
 -441274.52 -427002.55 512782.23
 -546013.31 -292674.35 506173.09
 -611758.94 -147459.30 493970.39
 -636961.41 -12618.083 483860.46
 -628008.27 97029.159 485994.81
 -595081.95 173878.86 505612.12
 -554319.53 213402.53 535900.38
 -98460.049 -582661.39 539269.24
 -213402.53 -554319.53 535900.38
 -353656.67 -491574.09 522763.69
 -479709.67 -398696.29 500919.05
 -573755.10 -288537.45 477023.30
 -631319.74 -175678.27 458881.82
 -654767.74 -72489.243 453899.23
 -649047.40 12070.764 467537.99
 -620641.46 71020.976 499760.14
 -582661.39 98460.049 539269.24
 539276.82 -136932.05 574830.52
 582984.16 -110067.03 536670.03
 619824.82 -53324.145 502964.94
 634409.22 27079.869 486612.39
 620719.21 124906.13 488984.79
 574326.03 232988.18 505832.11
 492254.42 341119.29 530399.10
 377298.07 436037.70 554542.42
 245632.12 504395.10 570307.33
 136932.05 539276.82 574830.52
 504395.10 -245632.12 570307.33
 549771.57 -204173.94 544117.84
 589403.48 -129495.42 525199.46
 605779.91 -25614.867 521895.18
 590252.41 101377.00 530400.60
 537324.99 239695.32 542059.04
 447102.61 371545.25 549593.84
 328975.03 478800.42 550023.26
 204173.94 549771.57 544117.84
 110067.03 582984.16 536670.03
 436037.70 -377298.07 554542.42
 478800.42 -328975.03 550023.26
 517682.14 -240120.93 560666.69
 533788.70 -110437.97 585553.65
 514723.67 54663.267 609976.61
 453750.16 234573.34 615699.71
 356254.37 397209.67 596076.59
 240120.93 517682.14 560666.69
 129495.42 589403.48 525199.46
 53324.145 619824.82 502964.94
 341119.30 -492254.42 530399.10
 371545.25 -447102.61 549593.84
 397209.67 -356254.37 596076.59
 402025.43 -210533.31 658825.68
 373140.93 -11551.645 707553.82
 305511.15 209606.18 709033.27
 210533.31 402025.43 658825.68
 110437.97 533788.70 585553.65
 25614.867 605779.91 521895.18
 -27079.869 634409.22 486612.39
 232988.18 -574326.03 505832.11
 239695.32 -537324.99 542059.04
 234573.34 -453750.16 615699.71
 209606.18 -305511.15 709033.27
 159649.76 -88474.512 778899.36
 88474.512 159649.76 778899.36
 11551.646 373140.93 707553.82
 -54663.268 514723.68 609976.61
 -101377.00 590252.41 530400.60
 -124906.13 620719.21 488984.79
 124906.13 -620719.21 488984.79
 101377.00 -590252.41 530400.60
 54663.266 -514723.68 609976.61
 -11551.644 -373140.93 707553.82
 -88474.513 -159649.76 778899.36
 -159649.76 88474.513 778899.36
 -209606.18 305511.15 709033.27
 -234573.34 453750.16 615699.71
 -239695.32 537324.99 542059.04
 -232988.18 574326.03 505832.11
 27079.869 -634409.22 486612.39
 -25614.867 -605779.91 521895.18
 -110437.97 -533788.70 585553.65
 -210533.31 -402025.43 658825.68
 -305511.15 -209606.18 709033.27
 -373140.93 11551.644 707553.82
 -402025.43 210533.31 658825.68
 -397209.67 356254.37 596076.59
 -371545.25 447102.61 549593.84
 -341119.30 492254.42 530399.10
 -53324.144 -619824.82 502964.94
 -129495.42 -589403.48 525199.46
 -240120.93 -517682.14 560666.69
 -356254.38 -397209.67 596076.59
 -453750.16 -234573.34 615699.71
 -514723.68 -54663.266 609976.61
 -533788.70 110437.97 585553.65
 -517682.14 240120.93 560666.69
 -478800.42 328975.03 550023.26
 -436037.70 377298.07 554542.42
 -110067.03 -582984.16 536670.03
 -204173.94 -549771.57 544117.84
 -328975.04 -478800.42 550023.26
 -447102.60 -371545.25 549593.84
 -537324.99 -239695.32 542059.04
 -590252.41 -101377.00 530400.60
 -605779.91 25614.867 521895.18
 -589403.48 129495.42 525199.46
 -549771.57 204173.94 544117.84
 -504395.10 245632.12 570307.33
 -136932.05 -539276.82 574830.52
 -245632.12 -504395.10 570307.33
 -377298.07 -436037.70 554542.42
 -492254.42 -341119.29 530399.10
 -574326.03 -232988.18 505832.11
 -620719.21 -124906.13 488984.79
 -634409.22 -27079.869 486612.39
 -619824.82 53324.145 502964.94
 -582984.16 110067.03 536670.03
 -539276.82 136932.05 574830.52
 481345.57 -188652.68 610505.20
 531593.27 -159284.91 576226.44
 578269.72 -102075.75 543309.00
 603587.10 -24143.221 524499.49
 601623.66 68515.315 522833.27
 568963.56 170290.18 535986.68
 502944.04 273616.93 558731.66
 405011.92 367825.04 583669.50
 288270.46 440366.16 602476.38
 188652.68 481345.57 610505.20
 440366.16 -288270.46 602476.38
 490051.83 -244920.47 582977.85
 537670.34 -170711.58 567246.13
 563908.73 -71195.040 562972.65
 560863.68 47820.469 568458.56
 524198.33 177259.08 577750.23
 453244.24 303718.09 585085.45
 354332.79 412075.26 587062.40
 244920.47 490051.83 582977.85
 159284.91 531593.27 576226.44
 367825.04 -405011.92 583669.50
 412075.26 -354332.79 587062.40
 455645.69 -265733.87 601475.28
 479432.10 -142094.64 624462.95
 473503.31 10515.411 644735.64
 432810.54 176365.25 649284.48
 359667.11 331817.84 632879.53
 265733.87 455645.69 601475.28
 170711.58 537670.33 567246.13
 102075.75 578269.72 543309.00
 273616.93 -502944.04 558731.66
 303718.09 -453244.24 585085.45
 331817.84 -359667.11 632879.53
 343190.73 -219333.33 688558.65
 329129.23 -37594.507 728189.95
 286141.57 161826.91 729338.78
 219333.33 343190.73 688558.65
 142094.64 479432.10 624462.95
 71195.040 563908.73 562972.65
 24143.221 603587.10 524499.49
 170290.18 -568963.56 535986.68
 177259.08 -524198.33 577750.23
 176365.24 -432810.54 649284.48
 161826.91 -286141.57 729338.78
 131750.46 -88120.401 784140.68
 88120.402 131750.46 784140.68
 37594.506 329129.23 728189.95
 -10515.411 473503.31 644735.64
 -47820.469 560863.68 568458.56
 -68515.315 601623.66 522833.27
 68515.316 -601623.65 522833.27
 47820.469 -560863.69 568458.56
 10515.412 -473503.31 644735.64
 -37594.507 -329129.23 728189.95
 -88120.400 -131750.46 784140.68
 -131750.46 88120.400 784140.68
 -161826.91 286141.57 729338.78
 -176365.25 432810.54 649284.48
 -177259.08 524198.33 577750.23
 -170290.18 568963.56 535986.68
 -24143.221 -603587.10 524499.49
 -71195.040 -563908.73 562972.65
 -142094.64 -479432.10 624462.95
 -219333.33 -343190.73 688558.65
 -286141.57 -161826.91 729338.78
 -329129.23 37594.507 728189.95
 -343190.73 219333.33 688558.65
 -331817.84 359667.11 632879.53
 -303718.09 453244.24 585085.45
 -273616.93 502944.04 558731.66
 -102075.75 -578269.72 543309.00
 -170711.57 -537670.34 567246.13
 -265733.87 -455645.69 601475.28
 -359667.11 -331817.84 632879.53
 -432810.54 -176365.24 649284.48
 -473503.31 -10515.412 644735.64
 -479432.10 142094.64 624462.95
 -455645.69 265733.87 601475.28
 -412075.26 354332.79 587062.40
 -367825.04 405011.92 583669.50
 -159284.91 -531593.27 576226.44
 -244920.47 -490051.83 582977.85
 -354332.79 -412075.26 587062.40
 -453244.24 -303718.09 585085.45
 -524198.33 -177259.08 577750.23
 -560863.69 -47820.469 568458.56
 -563908.73 71195.040 562972.65
 -537670.34 170711.58 567246.13
 -490051.83 244920.47 582977.85
 -440366.16 288270.46 602476.38
 -188652.68 -481345.57 610505.20
 -288270.46 -440366.16 602476.38
 -405011.92 -367825.04 583669.50
 -502944.04 -273616.93 558731.66
 -568963.56 -170290.18 535986.68
 -601623.65 -68515.316 522833.27
 -603587.10 24143.221 524499.49
 -578269.72 102075.75 543309.00
 -531593.27 159284.91 576226.44
 -481345.57 188652.68 610505.20
 418506.96 -243402.56 636872.92
 476616.16 -209776.98 607314.30
 534138.31 -149557.23 576479.74
 570959.57 -71355.514 555799.93
 580988.09 18341.379 549651.19
 561889.16 114661.69 557793.22
 511937.43 212082.80 577010.36
 431994.79 302577.59 601520.82
 332139.24 375222.70 623611.62
 243402.56 418506.96 636872.92
 375222.70 -332139.24 623611.62
 430054.41 -286725.39 610607.69
 486606.39 -211154.90 598855.43
 523747.35 -113095.02 594052.38
 533509.90 793.00911 596126.29
 512457.87 122756.46 601928.39
 459943.16 242756.11 607883.02
 380192.15 349013.62 611263.79
 286725.39 430054.41 610607.69
 209776.98 476616.16 607314.30
 302577.59 -431994.79 601520.82
 349013.61 -380192.15 611263.79
 398623.78 -291227.02 629512.43
 431804.44 -170982.29 651390.81
 439233.64 -26980.418 668091.21
 416618.70 127669.08 670916.89
 364778.62 275233.18 656645.46
 291227.02 398623.78 629512.43
 211154.90 486606.40 598855.43
 149557.23 534138.31 576479.75
 212082.80 -511937.43 577010.36
 242756.11 -459943.16 607883.02
 275233.18 -364778.62 656645.46
 295395.63 -228419.59 707506.83
 295644.44 -58892.973 741030.35
 272654.79 124472.57 741731.72
 228419.59 295395.63 707506.83
 170982.29 431804.44 651390.80
 113095.03 523747.35 594052.38
 71355.513 570959.57 555799.93
 114661.69 -561889.16 557793.22
 122756.46 -512457.87 601928.39
 127669.08 -416618.70 670916.89
 124472.57 -272654.79 741731.72
 111403.27 -88698.489 787224.17
 88698.488 111403.27 787224.17
 58892.973 295644.45 741030.35
 26980.418 439233.64 668091.21
 -793.00970 533509.90 596126.29
 -18341.378 580988.09 549651.19
 18341.379 -580988.09 549651.19
 793.00893 -533509.90 596126.29
 -26980.417 -439233.64 668091.21
 -58892.973 -295644.45 741030.35
 -88698.489 -111403.27 787224.17
 -111403.27 88698.489 787224.17
 -124472.57 272654.79 741731.72
 -127669.08 416618.70 670916.89
 -122756.46 512457.87 601928.39
 -114661.69 561889.16 557793.22
 -71355.514 -570959.57 555799.93
 -113095.02 -523747.35 594052.38
 -170982.29 -431804.44 651390.80
 -228419.59 -295395.63 707506.83
 -272654.79 -124472.57 741731.72
 -295644.44 58892.973 741030.35
 -295395.63 228419.59 707506.83
 -275233.18 364778.62 656645.46
 -242756.11 459943.16 607883.02
 -212082.81 511937.43 577010.36
 -149557.23 -534138.31 576479.75
 -211154.90 -486606.40 598855.43
 -291227.02 -398623.78 629512.43
 -364778.62 -275233.18 656645.45
 -416618.70 -127669.08 670916.89
 -439233.64 26980.417 668091.21
 -431804.44 170982.29 651390.81
 -398623.78 291227.02 629512.43
 -349013.62 380192.15 611263.79
 -302577.59 431994.79 601520.82
 -209776.98 -476616.16 607314.30
 -286725.39 -430054.41 610607.69
 -380192.15 -349013.62 611263.79
 -459943.16 -242756.11 607883.02
 -512457.87 -122756.46 601928.38
 -533509.90 -793.00876 596126.29
 -523747.35 113095.02 594052.38
 -486606.39 211154.90 598855.43
 -430054.41 286725.39 610607.69
 -375222.70 332139.24 623611.62
 -243402.56 -418506.96 636872.92
 -332139.24 -375222.70 623611.62
 -431994.79 -302577.59 601520.82
 -511937.43 -212082.81 577010.36
 -561889.16 -114661.69 557793.22
 -580988.09 -18341.379 549651.19
 -570959.57 71355.514 555799.93
 -534138.31 149557.23 576479.75
 -476616.16 209776.98 607314.30
 -418506.96 243402.56 636872.92
 357004.24 -299012.02 650491.95
 424269.95 -260800.17 626081.69
 494050.62 -196086.11 597883.12
 543426.11 -115115.27 575705.25
 565717.10 -25478.220 565079.66
 559460.93 67789.866 567809.83
 524072.33 160210.57 582821.39
 460480.96 245696.17 606292.57
 376614.78 315107.01 631560.67
 299012.02 357004.24 650491.95
 315107.01 -376614.78 631560.67
 376215.65 -329359.24 624487.21
 443089.09 -251323.41 616853.79
 492287.68 -151969.90 612011.43
 514987.08 -39450.718 610927.12
 508169.23 78387.485 612878.00
 471586.12 193206.93 616666.53
 408447.39 295781.25 621034.77
 329359.24 376215.65 624487.21
 260800.17 424269.95 626081.69
 245696.17 -460480.96 606292.57
 295781.25 -408447.39 621034.77
 353209.38 -318780.95 643134.39
 397246.07 -199126.22 665240.04
 417848.74 -58639.597 679679.21
 410661.81 90030.758 680625.70
 375875.03 231996.52 667004.93
 318780.94 353209.38 643134.39
 251323.41 443089.09 616853.79
 196086.11 494050.62 597883.12
 160210.57 -524072.33 582821.39
 193206.93 -471586.12 616666.53
 231996.52 -375875.03 667004.93
 262202.38 -241257.67 716271.35
 275677.02 -77458.780 746995.53
 268525.32 97692.785 747228.39
 241257.67 262202.38 716271.35
 199126.22 397246.07 665240.04
 151969.90 492287.68 612011.43
 115115.27 543426.11 575705.26
 67789.867 -559460.93 567809.83
 78387.484 -508169.23 612878.00
 90030.759 -410661.80 680625.70
 97692.784 -268525.32 747228.39
 98619.542 -91661.133 788588.88
 91661.133 98619.542 788588.88
 77458.780 275677.02 746995.53
 58639.596 417848.74 679679.21
 39450.719 514987.07 610927.13
 25478.220 565717.10 565079.66
 -25478.221 -565717.10 565079.66
 -39450.717 -514987.08 610927.13
 -58639.598 -417848.74 679679.21
 -77458.779 -275677.02 746995.53
 -91661.134 -98619.543 788588.88
 -98619.542 91661.133 788588.88
 -97692.785 268525.32 747228.39
 -90030.758 410661.80 680625.70
 -78387.485 508169.23 612878.00
 -67789.866 559460.93 567809.83
 -115115.27 -543426.11 575705.26
 -151969.90 -492287.68 612011.43
 -199126.22 -397246.07 665240.04
 -241257.67 -262202.38 716271.35
 -268525.32 -97692.784 747228.39
 -275677.02 77458.779 746995.53
 -262202.38 241257.67 716271.35
 -231996.52 375875.03 667004.93
 -193206.93 471586.12 616666.53
 -160210.57 524072.33 582821.39
 -196086.11 -494050.62 597883.12
 -251323.41 -443089.09 616853.79
 -318780.95 -353209.38 643134.39
 -375875.02 -231996.52 667004.93
 -410661.81 -90030.759 680625.70
 -417848.74 58639.598 679679.21
 -397246.07 199126.22 665240.04
 -353209.38 318780.95 643134.39
 -295781.25 408447.39 621034.77
 -245696.17 460480.96 606292.57
 -260800.17 -424269.95 626081.69
 -329359.25 -376215.65 624487.21
 -408447.39 -295781.25 621034.77
 -471586.12 -193206.93 616666.53
 -508169.23 -78387.484 612878.00
 -514987.08 39450.717 610927.13
 -492287.68 151969.90 612011.43
 -443089.09 251323.41 616853.79
 -376215.65 329359.24 624487.21
 -315107.01 376614.78 631560.67
 -299012.02 -357004.24 650491.95
 -376614.78 -315107.01 631560.67
 -460480.96 -245696.17 606292.57
 -524072.33 -160210.57 582821.39
 -559460.93 -67789.867 567809.83
 -565717.10 25478.221 565079.66
 -543426.11 115115.27 575705.26
 -494050.62 196086.11 597883.12
 -424269.95 260800.17 626081.69
 -357004.24 299012.02 650491.95
 299012.02 -357004.24 650491.95
 376614.78 -315107.01 631560.67
 460480.96 -245696.17 606292.57
 524072.32 -160210.57 582821.39
 559460.93 -67789.867 567809.83
 565717.10 25478.221 565079.66
 543426.11 115115.27 575705.25
 494050.62 196086.11 597883.12
 424269.95 260800.17 626081.69
 357004.24 299012.02 650491.95
 260800.17 -424269.95 626081.69
 329359.24 -376215.65 624487.21
 408447.39 -295781.25 621034.77
 471586.12 -193206.93 616666.53
 508169.23 -78387.485 612878.00
 514987.08 39450.718 610927.13
 492287.68 151969.90 612011.43
 443089.09 251323.41 616853.79
 376215.65 329359.24 624487.21
 315107.01 376614.78 631560.67
 196086.11 -494050.62 597883.12
 251323.41 -443089.09 616853.79
 318780.95 -353209.38 643134.39
 375875.03 -231996.52 667004.93
 410661.81 -90030.759 680625.70
 417848.74 58639.598 679679.21
 397246.07 199126.22 665240.04
 353209.38 318780.95 643134.39
 295781.25 408447.39 621034.77
 245696.17 460480.96 606292.57
 115115.27 -543426.11 575705.25
 151969.90 -492287.68 612011.43
 199126.22 -397246.07 665240.04
 241257.67 -262202.38 716271.35
 268525.32 -97692.784 747228.39
 275677.02 77458.779 746995.53
 262202.38 241257.67 716271.35
 231996.52 375875.03 667004.93
 193206.93 471586.12 616666.53
 160210.57 524072.33 582821.39
 25478.220 -565717.10 565079.66
 39450.719 -514987.08 610927.13
 58639.596 -417848.74 679679.21
 77458.780 -275677.02 746995.53
 91661.133 -98619.542 788588.88
 98619.542 91661.133 788588.88
 97692.784 268525.32 747228.39
 90030.760 410661.80 680625.70
 78387.484 508169.23 612878.00
 67789.867 559460.93 567809.83
 -67789.866 -559460.93 567809.83
 -78387.485 -508169.23 612878.00
 -90030.758 -410661.80 680625.70
 -97692.785 -268525.32 747228.39
 -98619.542 -91661.133 788588.88
 -91661.134 98619.542 788588.88
 -77458.779 275677.02 746995.53
 -58639.597 417848.74 679679.21
 -39450.718 514987.08 610927.13
 -25478.220 565717.10 565079.66
 -160210.57 -524072.33 582821.39
 -193206.93 -471586.12 616666.53
 -231996.52 -375875.03 667004.93
 -262202.38 -241257.67 716271.35
 -275677.02 -77458.779 746995.53
 -268525.32 97692.784 747228.39
 -241257.67 262202.38 716271.35
 -199126.22 397246.07 665240.04
 -151969.90 492287.68 612011.43
 -115115.27 543426.11 575705.26
 -245696.17 -460480.96 606292.57
 -295781.25 -408447.39 621034.77
 -353209.38 -318780.95 643134.39
 -397246.07 -199126.22 665240.04
 -417848.74 -58639.597 679679.21
 -410661.80 90030.759 680625.70
 -375875.03 231996.52 667004.93
 -318780.95 353209.38 643134.39
 -251323.41 443089.09 616853.79
 -196086.11 494050.62 597883.12
 -315107.01 -376614.78 631560.67
 -376215.65 -329359.24 624487.21
 -443089.09 -251323.41 616853.79
 -492287.68 -151969.90 612011.43
 -514987.08 -39450.718 610927.13
 -508169.23 78387.485 612878.00
 -471586.12 193206.93 616666.53
 -408447.39 295781.25 621034.77
 -329359.24 376215.65 624487.21
 -260800.17 424269.95 626081.69
 -357004.24 -299012.02 650491.95
 -424269.95 -260800.17 626081.69
 -494050.62 -196086.11 597883.12
 -543426.11 -115115.27 575705.26
 -565717.10 -25478.220 565079.66
 -559460.93 67789.866 567809.83
 -524072.33 160210.57 582821.39
 -460480.96 245696.17 606292.57
 -376614.78 315107.01 631560.67
 -299012.02 357004.24 650491.95
 243402.56 -418506.96 636872.92
 332139.24 -375222.70 623611.62
 431994.79 -302577.59 601520.82
 511937.43 -212082.80 577010.36
 561889.16 -114661.69 557793.22
 580988.09 -18341.379 549651.19
 570959.57 71355.514 555799.93
 534138.31 149557.23 576479.75
 476616.16 209776.98 607314.30
 418506.96 243402.56 636872.92
 209776.98 -476616.16 607314.30
 286725.39 -430054.41 610607.69
 380192.15 -349013.62 611263.79
 459943.16 -242756.11 607883.02
 512457.87 -122756.46 601928.38
 533509.90 -793.00922 596126.29
 523747.35 113095.02 594052.38
 486606.39 211154.90 598855.43
 430054.41 286725.39 610607.69
 375222.70 332139.24 623611.62
 149557.23 -534138.31 576479.75
 211154.90 -486606.40 598855.43
 291227.02 -398623.78 629512.43
 364778.62 -275233.18 656645.46
 416618.70 -127669.08 670916.89
 439233.64 26980.418 668091.21
 431804.44 170982.29 651390.81
 398623.78 291227.02 629512.43
 349013.62 380192.15 611263.79
 302577.59 431994.79 601520.82
 71355.513 -570959.57 555799.93
 113095.03 -523747.35 594052.38
 170982.29 -431804.44 651390.81
 228419.59 -295395.63 707506.83
 272654.79 -124472.57 741731.72
 295644.44 58892.972 741030.35
 295395.63 228419.59 707506.83
 275233.18 364778.62 656645.45
 242756.10 459943.16 607883.02
 212082.81 511937.43 577010.36
 -18341.378 -580988.09 549651.19
 -793.00966 -533509.90 596126.29
 26980.418 -439233.64 668091.21
 58892.973 -295644.44 741030.35
 88698.488 -111403.27 787224.17
 111403.27 88698.489 787224.17
 124472.57 272654.79 741731.72
 127669.08 416618.70 670916.89
 122756.46 512457.87 601928.38
 114661.69 561889.16 557793.22
 -114661.69 -561889.16 557793.22
 -122756.46 -512457.87 601928.39
 -127669.08 -416618.70 670916.89
 -124472.57 -272654.79 741731.72
 -111403.27 -88698.487 787224.17
 -88698.489 111403.27 787224.17
 -58892.972 295644.44 741030.35
 -26980.418 439233.64 668091.21
 793.00956 533509.90 596126.29
 18341.378 580988.09 549651.19
 -212082.81 -511937.43 577010.36
 -242756.11 -459943.16 607883.02
 -275233.18 -364778.62 656645.46
 -295395.63 -228419.59 707506.83
 -295644.44 -58892.974 741030.35
 -272654.79 124472.57 741731.72
 -228419.59 295395.63 707506.83
 -170982.29 431804.44 651390.81
 -113095.03 523747.35 594052.38
 -71355.513 570959.57 555799.93
 -302577.59 -431994.79 601520.82
 -349013.62 -380192.15 611263.79
 -398623.78 -291227.02 629512.43
 -431804.44 -170982.29 651390.81
 -439233.64 -26980.416 668091.21
 -416618.70 127669.08 670916.89
 -364778.62 275233.18 656645.46
 -291227.02 398623.78 629512.43
 -211154.90 486606.40 598855.43
 -149557.23 534138.31 576479.75
 -375222.70 -332139.24 623611.62
 -430054.41 -286725.39 610607.69
 -486606.40 -211154.90 598855.43
 -523747.35 -113095.02 594052.38
 -533509.90 793.00823 596126.29
 -512457.87 122756.46 601928.39
 -459943.16 242756.11 607883.02
 -380192.15 349013.62 611263.79
 -286725.39 430054.41 610607.69
 -209776.98 476616.16 607314.30
 -418506.96 -243402.56 636872.92
 -476616.16 -209776.98 607314.30
 -534138.31 -149557.23 576479.75
 -570959.57 -71355.514 555799.93
 -580988.09 18341.379 549651.19
 -561889.16 114661.69 557793.22
 -511937.43 212082.80 577010.36
 -431994.79 302577.59 601520.82
 -332139.24 375222.70 623611.62
 -243402.56 418506.96 636872.92
 188652.68 -481345.57 610505.20
 288270.46 -440366.16 602476.38
 405011.92 -367825.04 583669.50
 502944.04 -273616.93 558731.66
 568963.56 -170290.18 535986.68
 601623.65 -68515.316 522833.27
 603587.10 24143.221 524499.49
 578269.72 102075.75 543309.00
 531593.27 159284.91 576226.44
 481345.57 188652.68 610505.20
 159284.91 -531593.27 576226.44
 244920.46 -490051.83 582977.85
 354332.79 -412075.26 587062.40
 453244.24 -303718.09 585085.45
 524198.33 -177259.08 577750.23
 560863.69 -47820.468 568458.56
 563908.73 71195.040 562972.65
 537670.34 170711.58 567246.13
 490051.83 244920.47 582977.85
 440366.16 288270.46 602476.38
 102075.75 -578269.72 543309.00
 170711.58 -537670.34 567246.13
 265733.87 -455645.69 601475.28
 359667.11 -331817.84 632879.53
 432810.54 -176365.24 649284.48
 473503.31 -10515.413 644735.64
 479432.10 142094.64 624462.95
 455645.69 265733.87 601475.28
 412075.26 354332.79 587062.40
 367825.04 405011.92 583669.50
 24143.221 -603587.10 524499.49
 71195.039 -563908.73 562972.65
 142094.64 -479432.10 624462.95
 219333.33 -343190.73 688558.65
 286141.57 -161826.91 729338.78
 329129.23 37594.508 728189.95
 343190.73 219333.33 688558.65
 331817.84 359667.11 632879.53
 303718.09 453244.24 585085.45
 273616.93 502944.04 558731.66
 -68515.315 -601623.66 522833.27
 -47820.469 -560863.68 568458.56
 -10515.411 -473503.31 644735.64
 37594.506 -329129.23 728189.95
 88120.402 -131750.46 784140.68
 131750.46 88120.400 784140.68
 161826.91 286141.57 729338.78
 176365.24 432810.55 649284.48
 177259.08 524198.33 577750.23
 170290.18 568963.56 535986.68
 -170290.18 -568963.56 535986.68
 -177259.07 -524198.33 577750.23
 -176365.25 -432810.54 649284.48
 -161826.91 -286141.57 729338.78
 -131750.46 -88120.403 784140.68
 -88120.400 131750.46 784140.68
 -37594.508 329129.23 728189.95
 10515.413 473503.31 644735.64
 47820.468 560863.69 568458.55
 68515.316 601623.65 522833.27
 -273616.93 -502944.04 558731.66
 -303718.09 -453244.24 585085.45
 -331817.84 -359667.11 632879.53
 -343190.73 -219333.33 688558.65
 -329129.23 -37594.505 728189.95
 -286141.57 161826.91 729338.78
 -219333.33 343190.73 688558.65
 -142094.64 479432.10 624462.95
 -71195.039 563908.73 562972.65
 -24143.221 603587.10 524499.49
 -367825.04 -405011.92 583669.50
 -412075.26 -354332.79 587062.40
 -455645.69 -265733.87 601475.28
 -479432.10 -142094.64 624462.95
 -473503.31 10515.410 644735.64
 -432810.54 176365.25 649284.48
 -359667.11 331817.84 632879.53
 -265733.87 455645.69 601475.28
 -170711.58 537670.34 567246.13
 -102075.75 578269.72 543309.00
 -440366.16 -288270.46 602476.38
 -490051.83 -244920.46 582977.85
 -537670.34 -170711.58 567246.13
 -563908.73 -71195.040 562972.65
 -560863.69 47820.470 568458.56
 -524198.33 177259.07 577750.23
 -453244.24 303718.09 585085.45
 -354332.79 412075.26 587062.40
 -244920.47 490051.83 582977.85
 -159284.91 531593.27 576226.44
 -481345.57 -188652.68 610505.20
 -531593.27 -159284.91 576226.44
 -578269.72 -102075.75 543309.00
 -603587.10 -24143.220 524499.49
 -601623.66 68515.315 522833.27
 -568963.56 170290.18 535986.68
 -502944.04 273616.93 558731.66
 -405011.92 367825.04 583669.50
 -288270.46 440366.16 602476.38
 -188652.68 481345.57 610505.20
 136932.05 -539276.82 574830.52
 245632.12 -504395.10 570307.33
 377298.07 -436037.70 554542.42
 492254.42 -341119.29 530399.10
 574326.03 -232988.18 505832.11
 620719.21 -124906.13 488984.79
 634409.22 -27079.869 486612.39
 619824.82 53324.145 502964.94
 582984.16 110067.03 536670.03
 539276.82 136932.05 574830.52
 110067.03 -582984.16 536670.03
 204173.94 -549771.57 544117.84
 328975.03 -478800.42 550023.26
 447102.60 -371545.25 549593.84
 537324.99 -239695.32 542059.04
 590252.41 -101377.00 530400.60
 605779.91 25614.868 521895.18
 589403.48 129495.42 525199.46
 549771.57 204173.94 544117.84
 504395.10 245632.12 570307.33
 53324.145 -619824.82 502964.94
 129495.42 -589403.48 525199.46
 240120.93 -517682.14 560666.69
 356254.38 -397209.67 596076.59
 453750.16 -234573.34 615699.71
 514723.68 -54663.265 609976.61
 533788.70 110437.97 585553.65
 517682.14 240120.93 560666.69
 478800.42 328975.04 550023.26
 436037.70 377298.07 554542.42
 -27079.869 -634409.22 486612.39
 25614.867 -605779.91 521895.18
 110437.97 -533788.70 585553.65
 210533.31 -402025.43 658825.68
 305511.15 -209606.18 709033.27
 373140.93 11551.644 707553.82
 402025.43 210533.31 658825.68
 397209.67 356254.38 596076.59
 371545.25 447102.60 549593.84
 341119.30 492254.42 530399.10
 -124906.13 -620719.21 488984.79
 -101377.00 -590252.41 530400.60
 -54663.267 -514723.67 609976.61
 11551.646 -373140.93 707553.82
 88474.511 -159649.77 778899.36
 159649.76 88474.514 778899.36
 209606.18 305511.15 709033.27
 234573.34 453750.16 615699.71
 239695.32 537324.99 542059.04
 232988.18 574326.02 505832.11
 -232988.18 -574326.03 505832.11
 -239695.32 -537324.99 542059.04
 -234573.34 -453750.16 615699.71
 -209606.18 -305511.15 709033.27
 -159649.76 -88474.511 778899.36
 -88474.514 159649.76 778899.36
 -11551.644 373140.93 707553.82
 54663.266 514723.68 609976.61
 101377.00 590252.41 530400.60
 124906.13 620719.21 488984.79
 -341119.30 -492254.42 530399.10
 -371545.25 -447102.61 549593.84
 -397209.67 -356254.37 596076.59
 -402025.43 -210533.31 658825.68
 -373140.93 -11551.646 707553.82
 -305511.15 209606.18 709033.27
 -210533.31 402025.43 658825.68
 -110437.97 533788.70 585553.65
 -25614.868 605779.91 521895.18
 27079.869 634409.22 486612.39
 -436037.70 -377298.07 554542.42
 -478800.42 -328975.03 550023.26
 -517682.14 -240120.93 560666.69
 -533788.70 -110437.97 585553.65
 -514723.68 54663.268 609976.61
 -453750.16 234573.34 615699.71
 -356254.37 397209.67 596076.59
 -240120.93 517682.15 560666.69
 -129495.42 589403.48 525199.46
 -53324.145 619824.82 502964.94
 -504395.10 -245632.11 570307.33
 -549771.57 -204173.94 544117.84
 -589403.48 -129495.42 525199.46
 -605779.91 -25614.867 521895.18
 -590252.41 101377.00 530400.60
 -537324.99 239695.32 542059.04
 -447102.60 371545.25 549593.84
 -328975.04 478800.42 550023.26
 -204173.94 549771.57 544117.84
 -110067.03 582984.16 536670.03
 -539276.82 -136932.05 574830.52
 -582984.16 -110067.03 536670.03
 -619824.82 -53324.145 502964.94
 -634409.22 27079.869 486612.39
 -620719.21 124906.13 488984.79
 -574326.03 232988.18 505832.11
 -492254.42 341119.30 530399.10
 -377298.07 436037.70 554542.42
 -245632.12 504395.10 570307.33
 -136932.05 539276.82 574830.52
 98460.049 -582661.39 539269.24
 213402.53 -554319.53 535900.38
 353656.67 -491574.09 522763.69
 479709.67 -398696.29 500919.05
 573755.10 -288537.45 477023.30
 631319.74 -175678.27 458881.82
 654767.74 -72489.243 453899.23
 649047.40 12070.764 467537.99