# OOMMF OVF 2.0
#
# Segment count: 1
#
# Begin: Segment
# Begin: Header
#
# Title: Oxs_MinDriver::Magnetization
# Desc: Oxs vector field output
# Desc:  MIF source file: /home/ryan/Git/joommf/tools/omfvis/cube_example.mif
# Desc:  Iteration: 2804, State id: 5790
# Desc:  Stage: 7, Stage iteration: 79
# Desc:  Stage simulation time: 0 s
# Desc:  Total simulation time: -2 s
# meshunit: m
# meshtype: rectangular
# xbase: 2.5000000000000001e-09
# ybase: 2.5000000000000001e-09
# zbase: 2.5000000000000001e-09
# xnodes: 10
# ynodes: 10
# znodes: 10
# xstepsize: 5.0000000000000001e-09
# ystepsize: 5.0000000000000001e-09
# zstepsize: 5.0000000000000001e-09
# xmin: 0
# ymin: 0
# zmin: 0
# xmax: 4.9999999999999998e-08
# ymax: 4.9999999999999998e-08
# zmax: 4.9999999999999998e-08
# valuedim: 3
# valuelabels: Magnetization_x Magnetization_y Magnetization_z
# valueunits: A/m A/m A/m
#
# End: Header
#
# Begin: Data Text
 647005.99 -229246.93 410888.18
 688899.72 -184207.93 362608.08
 722879.34 -102982.41 326864.02
 735619.93 3418.6702 314406.80
 721300.65 127123.43 321815.17
 675244.18 260104.28 341161.35
 594398.18 391557.76 365203.13
 480306.09 508553.15 388174.89
 345986.68 597253.08 404452.68
 229246.92 647006.01 410888.15
 597253.06 -345986.69 404452.70
 647528.46 -289288.90 370160.54
 693519.33 -189856.74 350692.68
 716103.70 -55940.460 352230.26
 703536.48 104595.55 366191.46
 648082.63 276189.59 379088.66
 550983.49 435526.50 383058.56
 424088.12 562744.25 378771.93
 289288.88 647528.48 370160.52
 184207.92 688899.74 362608.05
 508553.13 -480306.10 388174.91
 562744.22 -424088.14 378771.95
 620094.18 -316348.09 394217.06
 655309.08 -154757.69 431995.44
 645190.50 57442.263 469499.31
 574543.63 288776.47 475928.32
 454589.20 486256.59 443737.75
 316348.07 620094.21 394217.03
 189856.73 693519.35 350692.65
 102982.40 722879.35 326863.99
 391557.73 -594398.19 365203.14
 435526.47 -550983.51 383058.57
 486256.55 -454589.22 443737.77
 519358.82 -283021.15 538670.07
 502873.11 -21238.588 621825.98
 415128.57 280762.69 623570.83
 283021.12 519358.87 538670.04
 154757.67 655309.11 431995.41
 55940.450 716103.71 352230.23
 -3418.6766 735619.94 314406.77
 260104.25 -675244.19 341161.35
 276189.56 -648082.64 379088.66
 288776.43 -574543.65 475928.33
 280762.63 -415128.59 623570.85
 228853.19 -128600.23 755703.78
 128600.21 228853.26 755703.76
 21238.567 502873.16 621825.95
 -57442.275 645190.53 469499.27
 -104595.56 703536.50 366191.43
 -127123.43 721300.66 321815.14
 127123.40 -721300.66 321815.17
 104595.51 -703536.49 366191.46
 57442.216 -645190.51 469499.30
 -21238.649 -502873.13 621825.97
 -128600.31 -228853.21 755703.76
 -228853.28 128600.28 755703.74
 -280762.70 415128.62 623570.80
 -288776.48 574543.66 475928.28
 -276189.59 648082.65 379088.62
 -260104.27 675244.19 341161.32
 3418.6431 -735619.93 314406.79
 -55940.494 -716103.70 352230.25
 -154757.73 -655309.09 431995.42
 -283021.19 -519358.83 538670.04
 -415128.64 -280762.64 623570.81
 -502873.17 21238.629 621825.94
 -519358.87 283021.17 538670.01
 -486256.59 454589.23 443737.72
 -435526.50 550983.51 383058.53
 -391557.75 594398.20 365203.11
 -102982.43 -722879.34 326864.01
 -189856.77 -693519.33 350692.66
 -316348.12 -620094.18 394217.04
 -454589.25 -486256.55 443737.74
 -574543.68 -288776.43 475928.29
 -645190.54 -57442.229 469499.26
 -655309.11 154757.71 431995.39
 -620094.21 316348.11 394217.01
 -562744.24 424088.15 378771.91
 -508553.15 480306.12 388174.87
 -184207.96 -688899.72 362608.06
 -289288.92 -647528.46 370160.53
 -424088.16 -562744.22 378771.93
 -550983.53 -435526.47 383058.54
 -648082.66 -276189.56 379088.63
 -703536.51 -104595.52 366191.43
 -716103.72 55940.482 352230.22
 -693519.35 189856.76 350692.63
 -647528.48 289288.91 370160.50
 -597253.08 345986.71 404452.66
 -229246.96 -647005.99 410888.16
 -345986.72 -597253.06 404452.69
 -480306.13 -508553.12 388174.89
 -594398.21 -391557.73 365203.12
 -675244.20 -260104.25 341161.32
 -721300.67 -127123.41 321815.14
 -735619.94 -3418.6489 314406.76
 -722879.35 102982.43 326863.98
 -688899.73 184207.95 362608.04
 -647006.01 229246.95 410888.14
 614918.64 -263518.03 438672.22
 661945.73 -216120.53 393852.47
 703169.22 -135387.61 356683.67
 723186.96 -32306.875 340524.42
 717085.55 86503.957 343955.49
 680915.79 215217.97 360603.54
 610789.66 345423.25 384211.87
 506073.03 465307.18 409120.17
 377595.72 559889.12 428888.84
 263518.03 614918.66 438672.19
 559889.10 -377595.73 428888.87
 614715.49 -316974.16 402060.00
 666578.75 -217984.59 384909.71
 695245.28 -88416.648 385767.42
 690909.86 65538.729 397929.95
 646848.60 231731.77 409740.51
 562198.81 390598.37 413963.06
 445429.87 522649.00 410402.56
 316974.15 614715.52 402059.97
 216120.53 661945.75 393852.44
 465307.16 -506073.04 409120.19
 522648.97 -445429.87 410402.58
 582774.53 -337465.32 431846.04
 620937.71 -180802.27 470900.10
 618733.28 21216.364 506674.45
 564005.13 242909.02 512731.33
 462456.22 440299.15 481944.92
 337465.31 582774.56 431846.02
 217984.58 666578.77 384909.68
 135387.60 703169.24 356683.64
 345423.23 -610789.67 384211.89
 390598.34 -562198.82 413963.08
 440299.11 -462456.23 481944.94
 472149.10 -293076.45 575483.64
 463128.83 -46198.043 650674.60
 398539.25 235846.00 652336.67
 293076.44 472149.14 575483.62
 180802.26 620937.74 470900.06
 88416.637 695245.30 385767.38
 32306.871 723186.98 340524.39
 215217.94 -680915.79 360603.54
 231731.73 -646848.60 409740.52
 242908.98 -564005.14 512731.34
 235845.94 -398539.27 652336.68
 197704.83 -127278.03 764665.35
 127278.02 197704.89 764665.34
 46198.031 463128.87 650674.56
 -21216.375 618733.30 506674.42
 -65538.732 690909.88 397929.91
 -86503.960 717085.57 343955.46
 86503.932 -717085.55 343955.49
 65538.695 -690909.86 397929.95
 21216.322 -618733.28 506674.45
 -46198.098 -463128.83 650674.59
 -127278.09 -197704.84 764665.34
 -197704.91 127278.08 764665.33
 -235846.01 398539.30 652336.64
 -242909.02 564005.17 512731.30
 -231731.77 646848.62 409740.47
 -215217.97 680915.81 360603.51
 -32306.900 -723186.96 340524.42
 -88416.677 -695245.28 385767.41
 -180802.31 -620937.71 470900.08
 -293076.50 -472149.10 575483.62
 -398539.31 -235845.95 652336.65
 -463128.88 46198.084 650674.55
 -472149.14 293076.48 575483.59
 -440299.14 462456.25 481944.89
 -390598.36 562198.83 413963.03
 -345423.25 610789.68 384211.85
 -135387.63 -703169.22 356683.67
 -217984.62 -666578.75 384909.70
 -337465.35 -582774.53 431846.03
 -462456.26 -440299.11 481944.91
 -564005.17 -242908.98 512731.31
 -618733.31 -21216.329 506674.41
 -620937.74 180802.29 470900.05
 -582774.55 337465.34 431846.00
 -522648.99 445429.89 410402.54
 -465307.18 506073.06 409120.15
 -216120.56 -661945.72 393852.46
 -316974.19 -614715.49 402059.98
 -445429.90 -522648.97 410402.56
 -562198.84 -390598.34 413963.05
 -646848.62 -231731.73 409740.48
 -690909.88 -65538.702 397929.91
 -695245.30 88416.669 385767.38
 -666578.77 217984.61 384909.67
 -614715.51 316974.18 402059.96
 -559889.12 377595.75 428888.82
 -263518.06 -614918.64 438672.20
 -377595.76 -559889.10 428888.85
 -506073.06 -465307.15 409120.17
 -610789.69 -345423.22 384211.86
 -680915.81 -215217.94 360603.51
 -717085.57 -86503.933 343955.46
 -723186.98 32306.895 340524.38
 -703169.24 135387.63 356683.63
 -661945.74 216120.55 393852.43
 -614918.66 263518.05 438672.17
 570102.43 -311450.96 466884.91
 624484.75 -260039.54 427081.07
 675114.75 -177067.53 390982.31
 704305.65 -74854.225 371954.84
 707769.25 40202.967 370737.65
 682862.58 163960.01 383165.53
 625958.24 290666.12 404585.57
 535066.75 410742.09 430109.87
 418393.16 509571.05 453083.34
 311450.96 570102.46 466884.88
 509571.02 -418393.16 453083.37
 569552.82 -355395.34 435090.49
 629258.26 -255455.19 422819.92
 666481.70 -128316.29 423482.08
 672591.77 19623.977 432706.84
 642418.81 178914.56 441913.62
 574102.76 334653.35 445435.91
 472708.45 469785.56 442547.46
 355395.34 569552.84 435090.46
 260039.54 624484.77 427081.03
 410742.07 -535066.75 430109.90
 469785.53 -472708.45 442547.48
 533861.42 -363994.92 471698.72
 577705.94 -210913.06 511636.13
 586089.58 -19004.917 544185.47
 549707.25 190784.10 549020.37
 470448.01 384457.74 520452.61
 363994.92 533861.44 471698.69
 255455.18 629258.29 422819.89
 177067.53 675114.77 390982.27
 290666.09 -625958.24 404585.59
 334653.32 -574102.76 445435.94
 384457.71 -470448.01 520452.63
 418875.82 -302776.41 610630.41
 420828.67 -70991.775 676656.04
 379998.42 189593.70 677978.93
 302776.40 418875.86 610630.38
 210913.05 577705.97 511636.10
 128316.29 666481.72 423482.05
 74854.222 704305.67 371954.80
 163959.98 -682862.57 383165.54
 178914.53 -642418.81 441913.63
 190784.07 -549707.25 549020.39
 189593.66 -379998.42 677978.94
 168226.51 -125593.77 771962.46
 125593.77 168226.56 771962.45
 70991.771 420828.71 676656.02
 19004.916 586089.61 544185.43
 -19623.980 672591.79 432706.80
 -40202.967 707769.27 370737.61
 40202.945 -707769.25 370737.66
 19623.950 -672591.77 432706.85
 -19004.955 -586089.57 544185.47
 -70991.821 -420828.67 676656.04
 -125593.82 -168226.51 771962.46
 -168226.56 125593.82 771962.44
 -189593.70 379998.46 677978.91
 -190784.10 549707.28 549020.34
 -178914.55 642418.84 441913.59
 -163960.00 682862.59 383165.49
 -74854.246 -704305.64 371954.84
 -128316.32 -666481.69 423482.08
 -210913.09 -577705.94 511636.12
 -302776.45 -418875.81 610630.39
 -379998.46 -189593.66 677978.92
 -420828.71 70991.820 676656.01
 -418875.85 302776.44 610630.37
 -384457.74 470448.04 520452.58
 -334653.35 574102.79 445435.89
 -290666.11 625958.26 404585.55
 -177067.56 -675114.74 390982.31
 -255455.21 -629258.26 422819.91
 -363994.95 -533861.41 471698.71
 -470448.04 -384457.70 520452.61
 -549707.28 -190784.06 549020.36
 -586089.61 19004.950 544185.43
 -577705.97 210913.08 511636.09
 -533861.44 363994.95 471698.68
 -469785.55 472708.47 442547.44
 -410742.09 535066.77 430109.85
 -260039.56 -624484.74 427081.06
 -355395.37 -569552.81 435090.48
 -472708.47 -469785.53 442547.46
 -574102.79 -334653.32 445435.91
 -642418.83 -178914.53 441913.60
 -672591.79 -19623.950 432706.81
 -666481.72 128316.32 423482.05
 -629258.28 255455.21 422819.88
 -569552.84 355395.37 435090.45
 -509571.04 418393.18 453083.33
 -311450.98 -570102.42 466884.90
 -418393.18 -509571.01 453083.36
 -535066.77 -410742.06 430109.88
 -625958.26 -290666.09 404585.57
 -682862.59 -163959.98 383165.51
 -707769.27 -40202.946 370737.62
 -704305.66 74854.245 371954.80
 -675114.76 177067.55 390982.27
 -624484.77 260039.56 427081.02
 -570102.45 311450.99 466884.87
 519181.70 -362913.75 488614.33
 582845.39 -306902.94 453984.40
 644395.99 -219765.05 420068.01
 683651.90 -115775.43 399018.96
 696666.73 -2191.3935 393256.48
 682303.90 117464.90 400828.38
 638106.33 239420.14 418925.19
 561918.27 356551.11 443981.04
 459748.55 455876.41 469902.09
 362913.77 519181.73 488614.30
 455876.38 -459748.54 469902.12
 522016.35 -395311.63 459595.09
 590896.54 -293426.72 452484.30
 637944.46 -166168.78 453227.10
 654730.41 -21574.138 459197.83
 637525.37 131905.76 464932.55
 584761.23 282938.32 466904.92
 499485.37 417755.04 464752.72
 395311.64 522016.38 459595.05
 306902.95 582845.42 453984.36
 356551.08 -561918.26 443981.07
 417755.02 -499485.36 464752.75
 487242.78 -390089.87 500424.18
 538865.63 -238602.77 541010.67
 558394.47 -53424.401 570387.11
 538184.72 146748.40 573430.13
 478551.76 335036.84 546569.78
 390089.87 487242.81 500424.15
 293426.72 590896.56 452484.27
 219765.05 644396.01 420067.97
 239420.12 -638106.32 418925.22
 282938.29 -584761.23 466904.95
 335036.81 -478551.75 546569.81
 375259.90 -312172.97 633820.20
 388791.69 -91053.470 693217.34
 366971.44 153740.76 694043.04
 312172.98 375259.94 633820.17
 238602.78 538865.66 541010.64
 166168.78 637944.48 453227.06
 115775.43 683651.92 399018.93
 117464.88 -682303.89 400828.40
 131905.74 -637525.36 464932.57
 146748.37 -538184.71 573430.15
 153740.73 -366971.43 694043.05
 147292.52 -125220.95 776289.01
 125220.96 147292.56 776289.00
 91053.479 388791.73 693217.32
 53424.406 558394.50 570387.08
 21574.143 654730.43 459197.80
 2191.3964 696666.75 393256.45
 -2191.4107 -696666.72 393256.50
 -21574.162 -654730.40 459197.85
 -53424.430 -558394.46 570387.12
 -91053.508 -388791.68 693217.35
 -125220.99 -147292.51 776289.01
 -147292.55 125221.00 776289.00
 -153740.75 366971.48 694043.02
 -146748.39 538184.75 573430.11
 -131905.75 637525.39 464932.52
 -117464.89 682303.92 400828.35
 -115775.45 -683651.89 399018.97
 -166168.80 -637944.45 453227.10
 -238602.80 -538865.62 541010.67
 -312173.00 -375259.89 633820.19
 -366971.47 -153740.71 694043.03
 -388791.72 91053.514 693217.32
 -375259.93 312173.01 633820.16
 -335036.83 478551.79 546569.76
 -282938.31 584761.26 466904.90
 -239420.13 638106.34 418925.17
 -219765.07 -644395.98 420068.01
 -293426.74 -590896.53 452484.30
 -390089.89 -487242.77 500424.17
 -478551.78 -335036.80 546569.79
 -538184.74 -146748.36 573430.12
 -558394.48 53424.437 570387.09
 -538865.65 238602.80 541010.64
 -487242.80 390089.90 500424.14
 -417755.03 499485.39 464752.70
 -356551.10 561918.29 443981.02
 -306902.96 -582845.38 453984.39
 -395311.65 -522016.34 459595.08
 -499485.39 -417755.01 464752.73
 -584761.25 -282938.28 466904.93
 -637525.38 -131905.73 464932.54
 -654730.42 21574.165 459197.81
 -637944.47 166168.80 453227.07
 -590896.55 293426.74 452484.27
 -522016.37 395311.66 459595.05
 -455876.40 459748.57 469902.08
 -362913.78 -519181.69 488614.33
 -459748.56 -455876.38 469902.11
 -561918.28 -356551.08 443981.05
 -638106.34 -239420.11 418925.19
 -682303.91 -117464.88 400828.37
 -696666.74 2191.4149 393256.46
 -683651.91 115775.45 399018.94
 -644396.00 219765.07 420067.97
 -582845.41 306902.97 453984.36
 -519181.72 362913.79 488614.29
 466695.00 -414640.67 500268.82
 540930.57 -354485.85 470886.30
 614801.15 -262413.82 439498.05
 665057.20 -154701.10 416853.07
 687698.89 -40201.551 406760.46
 683023.90 77188.166 409292.48
 650175.60 194695.01 423515.70
 587681.53 307183.12 447514.19
 500166.03 403777.71 476232.62
 414640.69 466695.02 500268.78
 403777.68 -500166.01 476232.66
 476930.55 -435224.14 472352.84
 556293.75 -331205.99 469936.02
 614369.56 -201902.67 470940.92
 641996.36 -57609.451 473837.34
 636440.38 92653.787 475771.92
 597114.14 239373.74 475557.48
 526419.85 371663.02 474076.73
 435224.16 476930.57 472352.80
 354485.86 540930.59 470886.26
 307183.10 -587681.51 447514.22
 371663.00 -526419.83 474076.76
 448342.80 -416984.70 514890.76
 509675.49 -265496.43 556545.19
 540720.17 -82870.822 583741.48
 534293.37 112130.92 584771.11
 490379.16 296117.12 558428.99
 416984.71 448342.82 514890.73
 331206.00 556293.77 469935.98
 262413.83 614801.17 439498.01
 194694.99 -650175.58 423515.73
 239373.72 -597114.12 475557.51
 296117.10 -490379.14 558429.02
 344552.12 -324750.61 644841.75
 369731.49 -108678.80 701061.73
 362937.86 128058.56 701339.52
 324750.62 344552.15 644841.72
 265496.44 509675.51 556545.16
 201902.68 614369.58 470940.89
 154701.11 665057.22 416853.04
 77188.152 -683023.89 409292.51
 92653.769 -636440.37 475771.94
 112130.90 -534293.35 584771.13
 128058.53 -362937.83 701339.53
 134410.05 -127654.02 778227.72
 127654.04 134410.08 778227.71
 108678.82 369731.52 701061.71
 82870.837 540720.20 583741.46
 57609.461 641996.38 473837.31
 40201.560 687698.91 406760.43
 -40201.565 -687698.88 406760.48
 -57609.467 -641996.35 473837.35
 -82870.846 -540720.15 583741.50
 -108678.83 -369731.47 701061.73
 -127654.05 -134410.03 778227.72
 -134410.06 127654.07 778227.71
 -128058.54 362937.88 701339.51
 -112130.91 534293.39 584771.09
 -92653.775 636440.40 475771.89
 -77188.156 683023.92 409292.46
 -154701.11 -665057.19 416853.09
 -201902.69 -614369.55 470940.94
 -265496.45 -509675.47 556545.19
 -324750.63 -344552.10 644841.74
 -362937.86 -128058.51 701339.52
 -369731.50 108678.85 701061.71
 -344552.13 324750.65 644841.72
 -296117.10 490379.18 558428.98
 -239373.73 597114.16 475557.46
 -194695.00 650175.61 423515.68
 -262413.83 -614801.14 439498.06
 -331206.00 -556293.74 469936.02
 -416984.72 -448342.78 514890.76
 -490379.16 -296117.08 558429.00
 -534293.38 -112130.88 584771.11
 -540720.18 82870.859 583741.47
 -509675.49 265496.46 556545.16
 -448342.81 416984.73 514890.73
 -371663.01 526419.87 474076.72
 -307183.11 587681.55 447514.17
 -354485.86 -540930.56 470886.30
 -435224.16 -476930.53 472352.83
 -526419.85 -371662.99 474076.75
 -597114.14 -239373.71 475557.49
 -636440.39 -92653.758 475771.92
 -641996.37 57609.479 473837.32
 -614369.57 201902.70 470940.90
 -556293.76 331206.02 469935.98
 -476930.55 435224.17 472352.80
 -403777.69 500166.05 476232.61
 -414640.69 -466694.98 500268.82
 -500166.03 -403777.67 476232.65
 -587681.53 -307183.09 447514.21
 -650175.60 -194694.98 423515.71
 -683023.90 -77188.143 409292.48
 -687698.90 40201.573 406760.45
 -665057.21 154701.12 416853.05
 -614801.16 262413.85 439498.02
 -540930.58 354485.88 470886.26
 -466695.01 414640.71 500268.78
 414640.69 -466694.98 500268.82
 500166.03 -403777.67 476232.65
 587681.53 -307183.09 447514.21
 650175.60 -194694.98 423515.71
 683023.90 -77188.143 409292.48
 687698.90 40201.573 406760.45
 665057.21 154701.12 416853.05
 614801.16 262413.85 439498.02
 540930.58 354485.88 470886.26
 466695.01 414640.71 500268.78
 354485.86 -540930.56 470886.30
 435224.16 -476930.53 472352.83
 526419.85 -371662.99 474076.75
 597114.14 -239373.71 475557.49
 636440.39 -92653.757 475771.92
 641996.37 57609.478 473837.33
 614369.57 201902.70 470940.90
 556293.76 331206.02 469935.98
 476930.56 435224.17 472352.80
 403777.69 500166.05 476232.61
 262413.83 -614801.14 439498.05
 331206.00 -556293.74 469936.02
 416984.72 -448342.79 514890.76
 490379.16 -296117.08 558429.00
 534293.38 -112130.88 584771.11
 540720.18 82870.861 583741.47
 509675.49 265496.46 556545.17
 448342.81 416984.73 514890.73
 371663.01 526419.87 474076.72
 307183.11 587681.55 447514.17
 154701.11 -665057.19 416853.09
 201902.69 -614369.55 470940.93
 265496.45 -509675.47 556545.19
 324750.63 -344552.10 644841.74
 362937.86 -128058.51 701339.52
 369731.50 108678.84 701061.72
 344552.13 324750.65 644841.72
 296117.10 490379.18 558428.98
 239373.73 597114.16 475557.46
 194695.00 650175.61 423515.68
 40201.565 -687698.88 406760.48
 57609.468 -641996.35 473837.35
 82870.845 -540720.16 583741.50
 108678.83 -369731.47 701061.73
 127654.05 -134410.03 778227.72
 134410.06 127654.07 778227.71
 128058.54 362937.88 701339.51
 112130.91 534293.39 584771.09
 92653.774 636440.40 475771.89
 77188.157 683023.92 409292.46
 -77188.152 -683023.89 409292.51
 -92653.770 -636440.37 475771.94
 -112130.90 -534293.35 584771.13
 -128058.53 -362937.83 701339.53
 -134410.05 -127654.02 778227.72
 -127654.04 134410.08 778227.71
 -108678.82 369731.52 701061.71
 -82870.839 540720.20 583741.46
 -57609.460 641996.38 473837.31
 -40201.560 687698.91 406760.43
 -194694.99 -650175.58 423515.73
 -239373.72 -597114.12 475557.51
 -296117.10 -490379.14 558429.02
 -344552.12 -324750.61 644841.75
 -369731.49 -108678.80 701061.73
 -362937.86 128058.56 701339.52
 -324750.62 344552.15 644841.72
 -265496.44 509675.51 556545.16
 -201902.68 614369.58 470940.89
 -154701.11 665057.22 416853.04
 -307183.10 -587681.52 447514.22
 -371663.00 -526419.83 474076.76
 -448342.80 -416984.70 514890.76
 -509675.49 -265496.42 556545.19
 -540720.17 -82870.824 583741.48
 -534293.37 112130.92 584771.11
 -490379.16 296117.12 558428.99
 -416984.71 448342.82 514890.73
 -331206.00 556293.77 469935.98
 -262413.83 614801.17 439498.01
 -403777.68 -500166.01 476232.66
 -476930.55 -435224.14 472352.83
 -556293.75 -331205.99 469936.02
 -614369.56 -201902.67 470940.92
 -641996.36 -57609.450 473837.34
 -636440.38 92653.786 475771.92
 -597114.14 239373.74 475557.48
 -526419.85 371663.02 474076.73
 -435224.16 476930.57 472352.80
 -354485.86 540930.59 470886.26
 -466695.00 -414640.67 500268.82
 -540930.57 -354485.85 470886.30
 -614801.15 -262413.82 439498.05
 -665057.20 -154701.10 416853.07
 -687698.89 -40201.552 406760.46
 -683023.90 77188.166 409292.48
 -650175.60 194695.01 423515.70
 -587681.53 307183.12 447514.19
 -500166.03 403777.71 476232.62
 -414640.69 466695.02 500268.78
 362913.78 -519181.69 488614.33
 459748.56 -455876.38 469902.11
 561918.28 -356551.08 443981.05
 638106.33 -239420.11 418925.19
 682303.91 -117464.88 400828.37
 696666.74 2191.4145 393256.47
 683651.91 115775.45 399018.93
 644396.00 219765.07 420067.98
 582845.41 306902.97 453984.36
 519181.72 362913.79 488614.29
 306902.96 -582845.38 453984.39
 395311.65 -522016.34 459595.08
 499485.39 -417755.01 464752.73
 584761.25 -282938.28 466904.93
 637525.38 -131905.73 464932.54
 654730.42 21574.166 459197.81
 637944.47 166168.80 453227.07
 590896.55 293426.75 452484.27
 522016.37 395311.66 459595.05
 455876.40 459748.57 469902.08
 219765.07 -644395.98 420068.01
 293426.74 -590896.53 452484.30
 390089.89 -487242.77 500424.17
 478551.78 -335036.80 546569.79
 538184.74 -146748.36 573430.12
 558394.48 53424.436 570387.09
 538865.65 238602.81 541010.64
 487242.80 390089.90 500424.14
 417755.03 499485.39 464752.70
 356551.10 561918.29 443981.02
 115775.45 -683651.89 399018.97
 166168.80 -637944.45 453227.10
 238602.80 -538865.62 541010.67
 312173.00 -375259.89 633820.19
 366971.47 -153740.72 694043.03
 388791.72 91053.516 693217.32
 375259.93 312173.01 633820.16
 335036.83 478551.79 546569.76
 282938.31 584761.26 466904.90
 239420.13 638106.34 418925.17
 2191.4108 -696666.72 393256.50
 21574.161 -654730.40 459197.85
 53424.430 -558394.46 570387.12
 91053.507 -388791.68 693217.35
 125220.99 -147292.51 776289.01
 147292.55 125221.00 776289.00
 153740.76 366971.48 694043.02
 146748.39 538184.75 573430.11
 131905.75 637525.39 464932.52
 117464.89 682303.92 400828.35
 -117464.88 -682303.89 400828.40
 -131905.74 -637525.36 464932.57
 -146748.37 -538184.71 573430.15
 -153740.73 -366971.44 694043.05
 -147292.52 -125220.95 776289.01
 -125220.96 147292.56 776289.00
 -91053.480 388791.73 693217.32
 -53424.405 558394.49 570387.08
 -21574.144 654730.43 459197.80
 -2191.3961 696666.75 393256.45
 -239420.12 -638106.32 418925.22
 -282938.29 -584761.23 466904.95
 -335036.81 -478551.76 546569.81
 -375259.90 -312172.97 633820.20
 -388791.69 -91053.472 693217.34
 -366971.44 153740.76 694043.04
 -312172.98 375259.94 633820.17
 -238602.78 538865.66 541010.64
 -166168.78 637944.48 453227.06
 -115775.43 683651.92 399018.93
 -356551.08 -561918.26 443981.07
 -417755.02 -499485.36 464752.75
 -487242.78 -390089.87 500424.18
 -538865.63 -238602.77 541010.67
 -558394.47 -53424.399 570387.11
 -538184.72 146748.40 573430.13
 -478551.76 335036.84 546569.78
 -390089.87 487242.81 500424.15
 -293426.73 590896.56 452484.27
 -219765.05 644396.01 420067.97
 -455876.38 -459748.54 469902.12
 -522016.35 -395311.63 459595.09
 -590896.54 -293426.72 452484.30
 -637944.46 -166168.78 453227.10
 -654730.41 -21574.139 459197.84
 -637525.37 131905.76 464932.55
 -584761.23 282938.32 466904.92
 -499485.37 417755.04 464752.72
 -395311.64 522016.38 459595.05
 -306902.95 582845.42 453984.36
 -519181.70 -362913.75 488614.33
 -582845.39 -306902.94 453984.40
 -644395.99 -219765.05 420068.01
 -683651.90 -115775.43 399018.96
 -696666.73 -2191.3930 393256.48
 -682303.90 117464.90 400828.38
 -638106.33 239420.14 418925.19
 -561918.27 356551.11 443981.04
 -459748.55 455876.41 469902.09
 -362913.77 519181.73 488614.30
 311450.98 -570102.42 466884.90
 418393.18 -509571.01 453083.36
 535066.77 -410742.06 430109.88
 625958.26 -290666.09 404585.57
 682862.59 -163959.98 383165.51
 707769.27 -40202.946 370737.62
 704305.66 74854.245 371954.80
 675114.76 177067.55 390982.27
 624484.77 260039.56 427081.02
 570102.45 311450.99 466884.87
 260039.56 -624484.74 427081.06
 355395.37 -569552.81 435090.48
 472708.47 -469785.53 442547.47
 574102.79 -334653.32 445435.91
 642418.84 -178914.52 441913.60
 672591.79 -19623.950 432706.81
 666481.72 128316.32 423482.04
 629258.28 255455.21 422819.88
 569552.84 355395.37 435090.45
 509571.04 418393.18 453083.33
 177067.56 -675114.74 390982.31
 255455.21 -629258.26 422819.92
 363994.95 -533861.41 471698.71
 470448.04 -384457.70 520452.61
 549707.28 -190784.06 549020.36
 586089.61 19004.952 544185.43
 577705.97 210913.08 511636.09
 533861.44 363994.95 471698.68
 469785.55 472708.47 442547.44
 410742.09 535066.77 430109.85
 74854.246 -704305.64 371954.84
 128316.32 -666481.69 423482.08
 210913.09 -577705.94 511636.12
 302776.45 -418875.81 610630.39
 379998.46 -189593.66 677978.92
 420828.71 70991.819 676656.01
 418875.85 302776.44 610630.37
 384457.74 470448.04 520452.58
 334653.35 574102.79 445435.89
 290666.11 625958.26 404585.55
 -40202.945 -707769.25 370737.66
 -19623.950 -672591.77 432706.85
 19004.955 -586089.57 544185.47
 70991.821 -420828.67 676656.04
 125593.82 -168226.51 771962.46
 168226.56 125593.82 771962.44
 189593.70 379998.46 677978.91
 190784.10 549707.28 549020.34
 178914.55 642418.84 441913.59
 163960.00 682862.59 383165.49
 -163959.98 -682862.57 383165.54
 -178914.53 -642418.81 441913.63
 -190784.07 -549707.25 549020.39
 -189593.66 -379998.42 677978.94
 -168226.51 -125593.77 771962.46
 -125593.77 168226.56 771962.45
 -70991.772 420828.71 676656.02
 -19004.916 586089.61 544185.43
 19623.980 672591.79 432706.80
 40202.967 707769.27 370737.61
 -290666.09 -625958.24 404585.59
 -334653.32 -574102.76 445435.94
 -384457.71 -470448.01 520452.63
 -418875.82 -302776.41 610630.41
 -420828.67 -70991.774 676656.04
 -379998.42 189593.70 677978.93
 -302776.40 418875.86 610630.38
 -210913.05 577705.97 511636.10
 -128316.29 666481.72 423482.05
 -74854.222 704305.67 371954.80
 -410742.07 -535066.75 430109.90
 -469785.53 -472708.45 442547.48
 -533861.42 -363994.92 471698.72
 -577705.94 -210913.05 511636.13
 -586089.58 -19004.918 544185.46
 -549707.25 190784.10 549020.37
 -470448.01 384457.74 520452.61
 -363994.92 533861.44 471698.69
 -255455.18 629258.29 422819.89
 -177067.53 675114.77 390982.27
 -509571.02 -418393.16 453083.37
 -569552.82 -355395.34 435090.49
 -629258.26 -255455.19 422819.92
 -666481.70 -128316.30 423482.08
 -672591.77 19623.977 432706.84
 -642418.81 178914.56 441913.62
 -574102.76 334653.35 445435.91
 -472708.45 469785.56 442547.46
 -355395.34 569552.84 435090.46
 -260039.54 624484.77 427081.03
 -570102.43 -311450.96 466884.91
 -624484.75 -260039.54 427081.07
 -675114.75 -177067.53 390982.31
 -704305.65 -74854.225 371954.84
 -707769.25 40202.967 370737.65
 -682862.58 163960.01 383165.52
 -625958.24 290666.12 404585.57
 -535066.75 410742.09 430109.87
 -418393.16 509571.05 453083.34
 -311450.96 570102.46 466884.88
 263518.06 -614918.64 438672.20
 377595.76 -559889.10 428888.85
 506073.06 -465307.15 409120.17
 610789.69 -345423.22 384211.86
 680915.81 -215217.94 360603.51
 717085.57 -86503.934 343955.46
 723186.98 32306.895 340524.38
 703169.24 135387.63 356683.63
 661945.74 216120.55 393852.43
 614918.66 263518.05 438672.17
 216120.56 -661945.72 393852.46
 316974.19 -614715.49 402059.98
 445429.90 -522648.97 410402.56
 562198.84 -390598.34 413963.05
 646848.62 -231731.73 409740.48
 690909.88 -65538.701 397929.91
 695245.30 88416.669 385767.38
 666578.77 217984.61 384909.67
 614715.51 316974.18 402059.96
 559889.12 377595.75 428888.82
 135387.63 -703169.22 356683.67
 217984.62 -666578.75 384909.70
 337465.35 -582774.53 431846.03
 462456.26 -440299.11 481944.91
 564005.17 -242908.98 512731.31
 618733.31 -21216.330 506674.41
 620937.74 180802.29 470900.05
 582774.55 337465.34 431846.00
 522648.99 445429.89 410402.54
 465307.18 506073.06 409120.15
 32306.900 -723186.97 340524.42
 88416.676 -695245.28 385767.41
 180802.31 -620937.71 470900.08
 293076.49 -472149.10 575483.62
 398539.31 -235845.95 652336.65
 463128.88 46198.085 650674.55
 472149.14 293076.48 575483.59
 440299.14 462456.25 481944.89
 390598.36 562198.83 413963.03
 345423.25 610789.68 384211.85
 -86503.932 -717085.55 343955.49
 -65538.695 -690909.86 397929.95
 -21216.322 -618733.28 506674.45
 46198.098 -463128.83 650674.59
 127278.09 -197704.84 764665.34
 197704.91 127278.08 764665.33
 235846.00 398539.30 652336.64
 242909.02 564005.17 512731.30
 231731.77 646848.62 409740.47
 215217.97 680915.81 360603.51
 -215217.94 -680915.79 360603.54
 -231731.73 -646848.60 409740.52
 -242908.98 -564005.14 512731.34
 -235845.94 -398539.27 652336.68
 -197704.83 -127278.03 764665.35
 -127278.02 197704.89 764665.34
 -46198.031 463128.88 650674.56
 21216.374 618733.30 506674.42
 65538.732 690909.88 397929.91
 86503.959 717085.57 343955.46
 -345423.23 -610789.67 384211.89
 -390598.34 -562198.82 413963.08
 -440299.11 -462456.23 481944.94
 -472149.10 -293076.45 575483.64
 -463128.83 -46198.043 650674.60
 -398539.25 235846.00 652336.67
 -293076.44 472149.14 575483.62
 -180802.26 620937.74 470900.06
 -88416.637 695245.30 385767.38
 -32306.871 723186.98 340524.39
 -465307.16 -506073.04 409120.19
 -522648.97 -445429.87 410402.58
 -582774.53 -337465.32 431846.04
 -620937.71 -180802.27 470900.10
 -618733.28 21216.365 506674.45
 -564005.13 242909.02 512731.33
 -462456.22 440299.15 481944.92
 -337465.31 582774.56 431846.02
 -217984.58 666578.77 384909.68
 -135387.60 703169.24 356683.64
 -559889.10 -377595.73 428888.87
 -614715.49 -316974.16 402060.00
 -666578.75 -217984.59 384909.71
 -695245.28 -88416.647 385767.42
 -690909.86 65538.728 397929.95
 -646848.60 231731.77 409740.51
 -562198.81 390598.37 413963.06
 -445429.87 522649.00 410402.56
 -316974.15 614715.52 402059.97
 -216120.53 661945.75 393852.44
 -614918.64 -263518.03 438672.22
 -661945.73 -216120.53 393852.47
 -703169.22 -135387.61 356683.67
 -723186.96 -32306.875 340524.42
 -717085.55 86503.957 343955.49
 -680915.79 215217.97 360603.54
 -610789.66 345423.25 384211.87
 -506073.03 465307.18 409120.17
 -377595.72 559889.12 428888.84
 -263518.03 614918.66 438672.19
 229246.96 -647005.99 410888.16
 345986.72 -597253.06 404452.69
 480306.13 -508553.12 388174.89
 594398.21 -391557.73 365203.12
 675244.20 -260104.25 341161.32
 721300.67 -127123.41 321815.14
 735619.94 -3418.6489 314406.76
 722879.35 102982.43 326863.98