# OOMMF OVF 2.0
#
# Segment count: 1
#
# Begin: Segment
# Begin: Header
#
# Title: Oxs_MinDriver::Magnetization
# Desc: Oxs vector field output
# Desc:  MIF source file: /home/ryan/Git/joommf/tools/omfvis/cube_example.mif
# Desc:  Iteration: 3082, State id: 6402
# Desc:  Stage: 10, Stage iteration: 93
# Desc:  Stage simulation time: 0 s
# Desc:  Total simulation time: -2 s
# meshunit: m
# meshtype: rectangular
# xbase: 2.5000000000000001e-09
# ybase: 2.5000000000000001e-09
# zbase: 2.5000000000000001e-09
# xnodes: 10
# ynodes: 10
# znodes: 10
# xstepsize: 5.0000000000000001e-09
# ystepsize: 5.0000000000000001e-09
# zstepsize: 5.0000000000000001e-09
# xmin: 0
# ymin: 0
# zmin: 0
# xmax: 4.9999999999999998e-08
# ymax: 4.9999999999999998e-08
# zmax: 4.9999999999999998e-08
# valuedim: 3
# valuelabels: Magnetization_x Magnetization_y Magnetization_z
# valueunits: A/m A/m A/m
#
# End: Header
#
# Begin: Data Text
 617885.70 -164448.04 480805.68
 658749.23 -128943.57 435227.53
 690751.76 -59042.179 399219.27
 700558.29 36808.416 384529.87
 682069.82 150988.85 389850.14
 630423.19 274884.43 408662.63
 542647.73 396813.92 433672.87
 421418.11 502759.66 457864.06
 282190.03 578969.48 474513.57
 164448.04 617885.70 480805.68
 578969.48 -282190.03 474513.57
 625050.54 -234296.99 440927.14
 665128.27 -145871.03 419911.93
 681447.72 -23325.294 418431.52
 662963.31 125433.08 429821.12
 602503.85 285070.26 442407.12
 501258.89 433195.88 448420.40
 371026.80 549999.54 447034.25
 234296.99 625050.54 440927.14
 128943.57 658749.23 435227.53
 502759.66 -421418.11 457864.06
 549999.54 -371026.80 447034.25
 596771.48 -271457.68 458447.95
 620527.70 -121115.77 490179.91
 601259.29 75031.711 522357.64
 526949.68 287945.80 528593.65
 407872.93 471232.85 501576.79
 271457.69 596771.48 458447.95
 145871.03 665128.27 419911.93
 59042.179 690751.76 399219.27
 396813.92 -542647.73 433672.87
 433195.88 -501258.89 448420.40
 471232.85 -407872.93 501576.79
 489109.48 -244903.00 583776.02
 460664.15 -4436.4472 654040.41
 371397.13 268523.14 655712.97
 244903.00 489109.48 583776.02
 121115.77 620527.70 490179.91
 23325.294 681447.72 418431.52
 -36808.416 700558.29 384529.87
 274884.43 -630423.19 408662.63
 285070.26 -602503.85 442407.12
 287945.80 -526949.69 528593.65
 268523.13 -371397.13 655712.97
 208719.89 -109016.02 764559.69
 109016.02 208719.89 764559.69
 4436.4471 460664.16 654040.41
 -75031.711 601259.29 522357.64
 -125433.08 662963.31 429821.12
 -150988.85 682069.82 389850.14
 150988.85 -682069.82 389850.14
 125433.08 -662963.31 429821.12
 75031.711 -601259.29 522357.64
 -4436.4472 -460664.15 654040.41
 -109016.02 -208719.89 764559.69
 -208719.89 109016.02 764559.69
 -268523.14 371397.13 655712.97
 -287945.80 526949.69 528593.65
 -285070.26 602503.85 442407.12
 -274884.43 630423.19 408662.63
 36808.417 -700558.29 384529.87
 -23325.294 -681447.72 418431.52
 -121115.77 -620527.70 490179.91
 -244903.00 -489109.48 583776.02
 -371397.13 -268523.14 655712.97
 -460664.16 4436.4471 654040.41
 -489109.48 244903.00 583776.02
 -471232.85 407872.93 501576.79
 -433195.88 501258.89 448420.40
 -396813.92 542647.73 433672.87
 -59042.180 -690751.76 399219.27
 -145871.03 -665128.27 419911.93
 -271457.69 -596771.48 458447.95
 -407872.93 -471232.85 501576.79
 -526949.69 -287945.80 528593.65
 -601259.29 -75031.711 522357.64
 -620527.70 121115.77 490179.91
 -596771.48 271457.69 458447.95
 -549999.54 371026.80 447034.25
 -502759.66 421418.11 457864.06
 -128943.57 -658749.23 435227.53
 -234296.99 -625050.54 440927.14
 -371026.80 -549999.54 447034.25
 -501258.89 -433195.88 448420.40
 -602503.85 -285070.26 442407.12
 -662963.31 -125433.08 429821.12
 -681447.72 23325.294 418431.52
 -665128.27 145871.03 419911.93
 -625050.54 234296.99 440927.14
 -578969.48 282190.03 474513.57
 -164448.04 -617885.70 480805.68
 -282190.03 -578969.48 474513.57
 -421418.11 -502759.66 457864.06
 -542647.73 -396813.92 433672.87
 -630423.19 -274884.43 408662.63
 -682069.82 -150988.85 389850.14
 -700558.29 -36808.417 384529.87
 -690751.76 59042.179 399219.27
 -658749.23 128943.57 435227.53
 -617885.70 164448.04 480805.68
 579824.13 -200827.84 513295.39
 626205.74 -164344.94 469954.37
 666271.80 -95763.351 432332.35
 684360.55 -3633.2288 414291.49
 674995.87 105444.33 416247.60
 633918.05 224848.63 433117.77
 557425.02 345143.34 458424.93
 446285.22 453474.06 484964.72
 314129.89 535236.51 504821.04
 200827.84 579824.13 513295.39
 535236.51 -314129.89 504821.04
 585909.30 -263114.32 476949.83
 632368.90 -175953.49 457329.15
 655531.92 -58484.417 454815.87
 646047.17 83037.510 464465.09
 597660.70 236523.37 476296.54
 509785.18 383157.85 483020.85
 391247.46 503850.37 482763.12
 263114.32 585909.30 476949.83
 164344.94 626205.74 469954.37
 453474.06 -446285.22 484964.72
 503850.37 -391247.46 482763.12
 553738.64 -291911.39 498157.86
 581189.70 -147509.50 529584.25
 570727.60 37391.512 559349.51
 512895.55 239541.69 565294.56
 413117.44 420981.10 540470.99
 291911.39 553738.64 498157.86
 175953.49 632368.90 457329.15
 95763.351 666271.80 432332.35
 345143.34 -557425.02 458424.93
 383157.85 -509785.18 483020.85
 420981.10 -413117.44 540470.99
 439197.89 -253811.99 618615.13
 419976.37 -29395.053 680261.55
 353867.93 223298.37 681847.00
 253811.99 439197.89 618615.13
 147509.50 581189.70 529584.26
 58484.418 655531.92 454815.87
 3633.2285 684360.55 414291.49
 224848.63 -633918.05 433117.77
 236523.36 -597660.70 476296.54
 239541.69 -512895.54 565294.56
 223298.37 -353867.93 681847.00
 178950.95 -108193.25 772185.72
 108193.25 178950.95 772185.72
 29395.052 419976.37 680261.55
 -37391.512 570727.61 559349.51
 -83037.510 646047.17 464465.09
 -105444.33 674995.87 416247.60
 105444.33 -674995.87 416247.60
 83037.510 -646047.17 464465.09
 37391.512 -570727.61 559349.51
 -29395.053 -419976.37 680261.55
 -108193.25 -178950.95 772185.72
 -178950.95 108193.25 772185.72
 -223298.37 353867.93 681847.00
 -239541.70 512895.54 565294.56
 -236523.36 597660.70 476296.54
 -224848.63 633918.05 433117.77
 -3633.2288 -684360.55 414291.49
 -58484.417 -655531.92 454815.87
 -147509.50 -581189.70 529584.26
 -253811.99 -439197.89 618615.13
 -353867.93 -223298.37 681847.00
 -419976.37 29395.053 680261.55
 -439197.89 253811.99 618615.13
 -420981.10 413117.44 540470.99
 -383157.85 509785.18 483020.85
 -345143.34 557425.02 458424.93
 -95763.351 -666271.80 432332.35
 -175953.49 -632368.90 457329.15
 -291911.39 -553738.64 498157.86
 -413117.44 -420981.10 540470.99
 -512895.54 -239541.70 565294.56
 -570727.61 -37391.512 559349.51
 -581189.69 147509.50 529584.26
 -553738.64 291911.39 498157.86
 -503850.37 391247.46 482763.12
 -453474.06 446285.22 484964.72
 -164344.94 -626205.74 469954.37
 -263114.32 -585909.30 476949.83
 -391247.46 -503850.37 482763.12
 -509785.18 -383157.85 483020.85
 -597660.70 -236523.36 476296.54
 -646047.17 -83037.510 464465.09
 -655531.92 58484.417 454815.87
 -632368.90 175953.49 457329.15
 -585909.30 263114.32 476949.83
 -535236.51 314129.89 504821.04
 -200827.84 -579824.13 513295.39
 -314129.89 -535236.51 504821.04
 -446285.22 -453474.06 484964.72
 -557425.02 -345143.34 458424.93
 -633918.05 -224848.63 433117.77
 -674995.87 -105444.33 416247.60
 -684360.55 3633.2291 414291.49
 -666271.80 95763.351 432332.35
 -626205.74 164344.94 469954.37
 -579824.13 200827.84 513295.39
 528107.60 -250762.68 546095.63
 581622.24 -210938.52 507169.11
 631570.18 -140947.03 470375.43
 659819.34 -50442.955 449548.61
 661187.90 54204.695 447093.29
 632573.27 167976.81 460037.88
 570601.03 284059.58 483450.74
 474764.42 391999.95 510817.76
 355924.99 477818.31 533860.53
 250762.68 528107.60 546095.63
 477818.31 -355924.99 533860.53
 533314.72 -302637.31 513795.75
 587818.18 -215165.31 498170.33
 620291.94 -101085.06 494994.67
 622301.48 33415.510 501621.64
 588940.56 178964.87 510999.60
 518776.67 321268.29 517356.21
 417476.88 443967.29 518272.22
 302637.31 533314.72 513795.74
 210938.52 581622.24 507169.11
 391999.95 -474764.42 510817.76
 443967.29 -417476.88 518272.22
 498110.70 -317728.09 539383.53
 532147.04 -178133.81 570164.78
 533475.51 -4667.3974 596139.33
 494913.91 184333.96 600900.34
 418472.60 360197.09 578911.69
 317728.09 498110.70 539383.53
 215165.31 587818.18 498170.33
 140947.03 631570.18 470375.43
 284059.58 -570601.03 483450.74
 321268.29 -518776.67 517356.21
 360197.09 -418472.60 578911.69
 382798.11 -262667.30 651514.77
 376410.17 -54659.623 703795.22
 334478.57 176161.80 705046.88
 262667.30 382798.11 651514.77
 178133.81 532147.04 570164.78
 101085.06 620291.94 494994.67
 50442.956 659819.34 449548.61
 167976.81 -632573.27 460037.88
 178964.87 -588940.56 510999.60
 184333.96 -494913.91 600900.33
 176161.80 -334478.57 705046.88
 150157.14 -107039.39 778457.06
 107039.39 150157.14 778457.06
 54659.624 376410.17 703795.22
 4667.3961 533475.50 596139.33
 -33415.508 622301.48 501621.64
 -54204.696 661187.90 447093.29
 54204.696 -661187.90 447093.29
 33415.508 -622301.48 501621.64
 -4667.3960 -533475.50 596139.33
 -54659.624 -376410.17 703795.22
 -107039.39 -150157.14 778457.06
 -150157.14 107039.39 778457.06
 -176161.80 334478.57 705046.88
 -184333.96 494913.91 600900.33
 -178964.87 588940.56 510999.60
 -167976.81 632573.27 460037.88
 -50442.956 -659819.34 449548.61
 -101085.06 -620291.94 494994.67
 -178133.81 -532147.04 570164.78
 -262667.30 -382798.11 651514.77
 -334478.57 -176161.80 705046.88
 -376410.17 54659.623 703795.22
 -382798.11 262667.30 651514.77
 -360197.10 418472.59 578911.69
 -321268.29 518776.68 517356.21
 -284059.58 570601.03 483450.74
 -140947.03 -631570.18 470375.43
 -215165.31 -587818.18 498170.33
 -317728.09 -498110.70 539383.53
 -418472.60 -360197.09 578911.69
 -494913.91 -184333.96 600900.33
 -533475.50 4667.3979 596139.33
 -532147.04 178133.81 570164.78
 -498110.70 317728.09 539383.53
 -443967.29 417476.88 518272.22
 -391999.95 474764.42 510817.76
 -210938.52 -581622.24 507169.11
 -302637.31 -533314.72 513795.75
 -417476.88 -443967.29 518272.22
 -518776.67 -321268.29 517356.21
 -588940.56 -178964.87 510999.60
 -622301.48 -33415.510 501621.64
 -620291.94 101085.06 494994.67
 -587818.18 215165.31 498170.33
 -533314.72 302637.31 513795.75
 -477818.31 355924.99 533860.53
 -250762.68 -528107.60 546095.63
 -355924.99 -477818.31 533860.53
 -474764.42 -391999.95 510817.76
 -570601.03 -284059.58 483450.74
 -632573.27 -167976.81 460037.88
 -661187.90 -54204.695 447093.29
 -659819.34 50442.955 449548.61
 -631570.18 140947.03 470375.43
 -581622.24 210938.52 507169.11
 -528107.60 250762.68 546095.63
 470837.41 -304060.53 570840.90
 533130.26 -259760.75 536932.47
 594219.68 -186139.26 502250.09
 633435.60 -94570.907 479390.95
 645620.54 7882.6507 472347.32
 628987.77 116851.49 480333.34
 581297.62 227515.47 500329.68
 501762.98 332001.61 527265.43
 398666.22 418031.05 553457.57
 304060.53 470837.41 570840.90
 418031.05 -398666.22 553457.57
 479300.67 -343555.06 540593.00
 542999.65 -254377.58 529569.10
 585938.28 -140953.65 526125.85
 599713.64 -10714.142 529366.37
 580603.10 128128.29 535241.23
 527395.83 264754.11 540147.11
 443761.33 386172.38 542168.58
 343555.06 479300.67 540593.00
 259760.75 533130.27 536932.47
 332001.61 -501762.98 527265.43
 386172.38 -443761.33 542168.58
 446036.44 -343374.76 568458.68
 488629.74 -206275.18 598908.61
 502185.04 -40585.989 621420.11
 480738.77 137857.22 624408.22
 424806.85 306949.11 604418.22
 343374.76 446036.44 568458.68
 254377.58 542999.65 529569.10
 186139.26 594219.68 502250.09
 227515.47 -581297.62 500329.68
 264754.11 -527395.83 540147.11
 306949.11 -424806.85 604418.22
 336783.78 -271628.03 672900.36
 343329.59 -75240.632 718654.05
 320900.12 139446.47 719428.80
 271628.03 336783.78 672900.37
 206275.18 488629.74 598908.61
 140953.65 585938.27 526125.85
 94570.905 633435.60 479390.95
 116851.49 -628987.77 480333.34
 128128.28 -580603.11 535241.23
 137857.22 -480738.77 624408.22
 139446.47 -320900.11 719428.80
 129428.38 -107040.44 782170.47
 107040.44 129428.38 782170.47
 75240.631 343329.59 718654.05
 40585.991 502185.04 621420.11
 10714.139 599713.65 529366.37
 -7882.6494 645620.54 472347.32
 7882.6494 -645620.54 472347.31
 -10714.139 -599713.64 529366.37
 -40585.992 -502185.04 621420.11
 -75240.631 -343329.59 718654.05
 -107040.44 -129428.38 782170.47
 -129428.38 107040.44 782170.47
 -139446.47 320900.12 719428.80
 -137857.22 480738.77 624408.22
 -128128.28 580603.10 535241.23
 -116851.49 628987.77 480333.34
 -94570.906 -633435.60 479390.96
 -140953.65 -585938.28 526125.84
 -206275.18 -488629.74 598908.61
 -271628.03 -336783.78 672900.37
 -320900.12 -139446.48 719428.80
 -343329.59 75240.632 718654.05
 -336783.78 271628.03 672900.36
 -306949.11 424806.85 604418.22
 -264754.11 527395.83 540147.11
 -227515.47 581297.62 500329.68
 -186139.26 -594219.68 502250.09
 -254377.58 -542999.65 529569.10
 -343374.76 -446036.44 568458.68
 -424806.85 -306949.12 604418.22
 -480738.77 -137857.22 624408.22
 -502185.05 40585.989 621420.11
 -488629.74 206275.18 598908.61
 -446036.44 343374.76 568458.68
 -386172.38 443761.33 542168.58
 -332001.61 501762.98 527265.43
 -259760.75 -533130.26 536932.47
 -343555.06 -479300.67 540593.00
 -443761.33 -386172.38 542168.58
 -527395.83 -264754.11 540147.11
 -580603.10 -128128.29 535241.23
 -599713.64 10714.142 529366.37
 -585938.28 140953.65 526125.85
 -542999.65 254377.58 529569.10
 -479300.67 343555.06 540593.00
 -418031.05 398666.22 553457.57
 -304060.53 -470837.41 570840.90
 -398666.22 -418031.05 553457.57
 -501762.98 -332001.61 527265.43
 -581297.62 -227515.47 500329.68
 -628987.77 -116851.49 480333.34
 -645620.54 -7882.6508 472347.32
 -633435.60 94570.907 479390.95
 -594219.68 186139.26 502250.09
 -533130.26 259760.75 536932.47
 -470837.41 304060.53 570840.90
 413424.01 -358019.59 583868.61
 485760.88 -309334.32 555291.50
 559367.35 -230971.53 523221.10
 610510.20 -136113.56 498748.83
 633659.04 -33203.251 487210.18
 628223.94 73082.962 489891.38
 593433.31 178941.53 505783.39
 528959.61 278507.37 531634.63
 441307.02 361508.06 560856.52
 358019.59 413424.01 583868.61
 361508.06 -441307.02 560856.52
 429543.89 -384999.69 554316.96
 503787.02 -293494.41 547777.03
 558370.78 -178380.59 544428.55
 584065.72 -48978.749 544489.04
 577880.80 86148.855 546472.46
 539364.59 217951.25 549165.81
 471403.64 336206.63 552035.97
 384999.68 429543.89 554316.96
 309334.32 485760.88 555291.50
 278507.37 -528959.61 531634.63
 336206.63 -471403.63 552035.97
 403634.47 -370597.33 582869.48
 456544.85 -233784.83 613931.14
 482463.61 -71179.520 634162.71
 475641.79 101603.05 635170.61
 436150.38 265651.99 615793.69
 370597.33 403634.48 582869.48
 293494.41 503787.02 547777.03
 230971.53 559367.35 523221.10
 178941.53 -593433.31 505783.39
 217951.25 -539364.59 549165.81
 265651.99 -436150.38 615793.69
 304636.07 -284216.29 682948.00
 323640.47 -93303.148 725638.60
 316657.74 113137.64 725897.89
 284216.29 304636.07 682948.00
 233784.84 456544.85 613931.15
 178380.58 558370.78 544428.54
 136113.56 610510.20 498748.83
 73082.961 -628223.94 489891.38
 86148.856 -577880.80 546472.47
 101603.05 -475641.79 635170.61
 113137.64 -316657.74 725897.89
 116545.65 -109687.16 783827.68
 109687.17 116545.65 783827.68
 93303.148 323640.47 725638.60
 71179.519 482463.61 634162.71
 48978.752 584065.72 544489.05
 33203.249 633659.04 487210.18
 -33203.249 -633659.04 487210.18
 -48978.753 -584065.72 544489.04
 -71179.518 -482463.61 634162.71
 -93303.149 -323640.46 725638.60
 -109687.17 -116545.65 783827.68
 -116545.65 109687.17 783827.68
 -113137.64 316657.74 725897.89
 -101603.05 475641.79 635170.61
 -86148.856 577880.80 546472.46
 -73082.961 628223.94 489891.38
 -136113.56 -610510.20 498748.83
 -178380.58 -558370.78 544428.55
 -233784.84 -456544.85 613931.15
 -284216.29 -304636.07 682948.00
 -316657.74 -113137.64 725897.89
 -323640.47 93303.148 725638.60
 -304636.07 284216.29 682948.00
 -265651.99 436150.38 615793.69
 -217951.25 539364.59 549165.81
 -178941.53 593433.31 505783.39
 -230971.53 -559367.35 523221.10
 -293494.41 -503787.02 547777.03
 -370597.33 -403634.48 582869.48
 -436150.38 -265651.99 615793.69
 -475641.79 -101603.05 635170.61
 -482463.61 71179.521 634162.71
 -456544.85 233784.83 613931.14
 -403634.48 370597.33 582869.48
 -336206.63 471403.64 552035.97
 -278507.37 528959.61 531634.63
 -309334.32 -485760.88 555291.50
 -384999.68 -429543.89 554316.96
 -471403.64 -336206.63 552035.97
 -539364.59 -217951.25 549165.81
 -577880.80 -86148.854 546472.46
 -584065.72 48978.749 544489.05
 -558370.78 178380.59 544428.55
 -503787.02 293494.41 547777.03
 -429543.89 384999.68 554316.96
 -361508.06 441307.02 560856.52
 -358019.59 -413424.01 583868.61
 -441307.02 -361508.06 560856.52
 -528959.61 -278507.37 531634.63
 -593433.31 -178941.53 505783.39
 -628223.94 -73082.962 489891.38
 -633659.04 33203.251 487210.18
 -610510.20 136113.56 498748.83
 -559367.35 230971.53 523221.10
 -485760.88 309334.32 555291.50
 -413424.01 358019.59 583868.61
 358019.59 -413424.01 583868.61
 441307.02 -361508.06 560856.52
 528959.61 -278507.37 531634.63
 593433.31 -178941.54 505783.39
 628223.94 -73082.961 489891.38
 633659.04 33203.250 487210.18
 610510.20 136113.56 498748.83
 559367.35 230971.53 523221.10
 485760.88 309334.32 555291.50
 413424.01 358019.59 583868.61
 309334.32 -485760.88 555291.50
 384999.69 -429543.89 554316.96
 471403.63 -336206.63 552035.97
 539364.59 -217951.25 549165.81
 577880.80 -86148.856 546472.46
 584065.72 48978.751 544489.04
 558370.78 178380.59 544428.55
 503787.02 293494.41 547777.03
 429543.89 384999.68 554316.96
 361508.06 441307.02 560856.52
 230971.53 -559367.35 523221.10
 293494.41 -503787.02 547777.03
 370597.33 -403634.48 582869.48
 436150.38 -265651.99 615793.69
 475641.80 -101603.05 635170.61
 482463.61 71179.519 634162.71
 456544.85 233784.83 613931.14
 403634.48 370597.33 582869.48
 336206.63 471403.64 552035.97
 278507.37 528959.61 531634.63
 136113.56 -610510.20 498748.83
 178380.59 -558370.78 544428.55
 233784.83 -456544.85 613931.15
 284216.29 -304636.07 682948.00
 316657.74 -113137.64 725897.89
 323640.47 93303.149 725638.60
 304636.07 284216.29 682948.00
 265651.99 436150.38 615793.69
 217951.25 539364.59 549165.81
 178941.53 593433.31 505783.39
 33203.251 -633659.04 487210.18
 48978.749 -584065.72 544489.04
 71179.521 -482463.61 634162.71
 93303.147 -323640.46 725638.60
 109687.17 -116545.65 783827.68
 116545.65 109687.16 783827.68
 113137.64 316657.74 725897.89
 101603.05 475641.79 635170.61
 86148.854 577880.80 546472.46
 73082.962 628223.94 489891.38
 -73082.962 -628223.94 489891.38
 -86148.853 -577880.80 546472.47
 -101603.05 -475641.79 635170.61
 -113137.64 -316657.74 725897.89
 -116545.65 -109687.17 783827.68
 -109687.17 116545.65 783827.68
 -93303.148 323640.47 725638.60
 -71179.520 482463.61 634162.71
 -48978.750 584065.72 544489.05
 -33203.250 633659.04 487210.18
 -178941.53 -593433.31 505783.39
 -217951.25 -539364.59 549165.81
 -265651.99 -436150.38 615793.69
 -304636.07 -284216.29 682948.00
 -323640.47 -93303.148 725638.60
 -316657.74 113137.64 725897.89
 -284216.29 304636.07 682948.00
 -233784.83 456544.85 613931.14
 -178380.59 558370.78 544428.55
 -136113.56 610510.20 498748.83
 -278507.37 -528959.61 531634.63
 -336206.63 -471403.64 552035.97
 -403634.48 -370597.33 582869.48
 -456544.85 -233784.84 613931.15
 -482463.61 -71179.519 634162.71
 -475641.80 101603.05 635170.61
 -436150.38 265651.99 615793.69
 -370597.33 403634.48 582869.48
 -293494.41 503787.02 547777.03
 -230971.53 559367.35 523221.10
 -361508.06 -441307.02 560856.52
 -429543.89 -384999.68 554316.96
 -503787.02 -293494.41 547777.03
 -558370.78 -178380.59 544428.54
 -584065.72 -48978.751 544489.05
 -577880.80 86148.856 546472.46
 -539364.59 217951.25 549165.81
 -471403.64 336206.63 552035.97
 -384999.68 429543.89 554316.96
 -309334.32 485760.88 555291.50
 -413424.01 -358019.59 583868.61
 -485760.88 -309334.32 555291.50
 -559367.35 -230971.53 523221.10
 -610510.20 -136113.56 498748.83
 -633659.04 -33203.250 487210.18
 -628223.94 73082.961 489891.38
 -593433.31 178941.54 505783.39
 -528959.61 278507.37 531634.63
 -441307.02 361508.06 560856.52
 -358019.59 413424.01 583868.61
 304060.53 -470837.41 570840.90
 398666.22 -418031.05 553457.57
 501762.98 -332001.61 527265.43
 581297.62 -227515.47 500329.68
 628987.77 -116851.49 480333.34
 645620.54 -7882.6499 472347.32
 633435.60 94570.906 479390.96
 594219.68 186139.26 502250.09
 533130.26 259760.75 536932.47
 470837.41 304060.53 570840.90
 259760.75 -533130.26 536932.47
 343555.06 -479300.67 540593.00
 443761.33 -386172.38 542168.58
 527395.83 -264754.11 540147.11
 580603.10 -128128.28 535241.23
 599713.64 10714.140 529366.37
 585938.28 140953.65 526125.84
 542999.65 254377.58 529569.10
 479300.67 343555.06 540593.00
 418031.05 398666.22 553457.57
 186139.26 -594219.68 502250.09
 254377.58 -542999.65 529569.10
 343374.76 -446036.44 568458.68
 424806.85 -306949.11 604418.22
 480738.77 -137857.22 624408.22
 502185.04 40585.991 621420.11
 488629.74 206275.18 598908.61
 446036.44 343374.76 568458.68
 386172.38 443761.33 542168.58
 332001.61 501762.98 527265.43
 94570.906 -633435.60 479390.96
 140953.65 -585938.28 526125.84
 206275.18 -488629.74 598908.61
 271628.03 -336783.78 672900.37
 320900.12 -139446.47 719428.80
 343329.59 75240.631 718654.05
 336783.78 271628.03 672900.36
 306949.11 424806.85 604418.22
 264754.11 527395.83 540147.11
 227515.47 581297.62 500329.68
 -7882.6507 -645620.54 472347.31
 10714.142 -599713.64 529366.37
 40585.989 -502185.04 621420.11
 75240.632 -343329.59 718654.05
 107040.44 -129428.38 782170.47
 129428.38 107040.44 782170.47
 139446.47 320900.12 719428.80
 137857.22 480738.77 624408.22
 128128.28 580603.10 535241.23
 116851.49 628987.77 480333.34
 -116851.49 -628987.77 480333.34
 -128128.29 -580603.10 535241.23
 -137857.22 -480738.77 624408.22
 -139446.47 -320900.11 719428.80
 -129428.38 -107040.44 782170.47
 -107040.44 129428.38 782170.47
 -75240.631 343329.59 718654.05
 -40585.990 502185.05 621420.11
 -10714.140 599713.64 529366.37
 7882.6501 645620.54 472347.32
 -227515.47 -581297.62 500329.68
 -264754.11 -527395.83 540147.11
 -306949.11 -424806.85 604418.22
 -336783.78 -271628.03 672900.36
 -343329.59 -75240.632 718654.05
 -320900.12 139446.47 719428.80
 -271628.03 336783.78 672900.36
 -206275.18 488629.74 598908.61
 -140953.65 585938.28 526125.85
 -94570.906 633435.60 479390.95
 -332001.61 -501762.98 527265.43
 -386172.38 -443761.33 542168.58
 -446036.44 -343374.76 568458.68
 -488629.74 -206275.18 598908.61
 -502185.04 -40585.990 621420.11
 -480738.77 137857.22 624408.22
 -424806.85 306949.11 604418.22
 -343374.76 446036.44 568458.68
 -254377.58 542999.65 529569.10
 -186139.26 594219.68 502250.09
 -418031.05 -398666.22 553457.57
 -479300.67 -343555.06 540593.00
 -542999.65 -254377.58 529569.10
 -585938.27 -140953.65 526125.85
 -599713.65 -10714.140 529366.37
 -580603.10 128128.28 535241.23
 -527395.83 264754.11 540147.11
 -443761.33 386172.38 542168.58
 -343555.06 479300.67 540593.00
 -259760.75 533130.27 536932.47
 -470837.41 -304060.53 570840.90
 -533130.26 -259760.75 536932.47
 -594219.68 -186139.26 502250.09
 -633435.60 -94570.906 479390.95
 -645620.54 7882.6499 472347.32
 -628987.77 116851.49 480333.34
 -581297.62 227515.47 500329.68
 -501762.98 332001.61 527265.43
 -398666.22 418031.05 553457.57
 -304060.53 470837.41 570840.90
 250762.68 -528107.60 546095.63
 355924.99 -477818.31 533860.53
 474764.42 -391999.95 510817.76
 570601.03 -284059.58 483450.74
 632573.27 -167976.81 460037.88
 661187.90 -54204.696 447093.29
 659819.34 50442.956 449548.61
 631570.18 140947.03 470375.43
 581622.24 210938.52 507169.11
 528107.60 250762.68 546095.63
 210938.52 -581622.24 507169.11
 302637.31 -533314.72 513795.74
 417476.88 -443967.29 518272.22
 518776.67 -321268.29 517356.21
 588940.56 -178964.87 510999.60
 622301.48 -33415.508 501621.64
 620291.94 101085.06 494994.67
 587818.18 215165.31 498170.33
 533314.72 302637.31 513795.75
 477818.31 355924.99 533860.53
 140947.03 -631570.18 470375.43
 215165.31 -587818.18 498170.33
 317728.09 -498110.70 539383.53
 418472.60 -360197.09 578911.69
 494913.91 -184333.96 600900.33
 533475.50 4667.3957 596139.33
 532147.04 178133.81 570164.78
 498110.70 317728.09 539383.53
 443967.29 417476.88 518272.22
 391999.95 474764.42 510817.76
 50442.955 -659819.34 449548.61
 101085.06 -620291.94 494994.67
 178133.81 -532147.04 570164.78
 262667.30 -382798.11 651514.77
 334478.57 -176161.80 705046.88
 376410.17 54659.624 703795.22
 382798.11 262667.30 651514.77
 360197.09 418472.60 578911.69
 321268.29 518776.67 517356.21
 284059.58 570601.03 483450.74
 -54204.695 -661187.90 447093.29
 -33415.511 -622301.48 501621.64
 4667.3982 -533475.50 596139.33
 54659.622 -376410.17 703795.22
 107039.39 -150157.14 778457.06
 150157.14 107039.39 778457.06
 176161.80 334478.57 705046.88
 184333.96 494913.91 600900.33
 178964.87 588940.56 510999.60
 167976.81 632573.27 460037.88
 -167976.81 -632573.27 460037.88
 -178964.87 -588940.56 510999.60
 -184333.96 -494913.91 600900.34
 -176161.80 -334478.57 705046.88
 -150157.14 -107039.39 778457.06
 -107039.39 150157.14 778457.06
 -54659.623 376410.17 703795.22
 -4667.3971 533475.50 596139.33
 33415.510 622301.48 501621.64
 54204.696 661187.90 447093.29
 -284059.58 -570601.03 483450.74
 -321268.29 -518776.67 517356.21
 -360197.09 -418472.60 578911.69
 -382798.11 -262667.30 651514.77
 -376410.17 -54659.623 703795.22
 -334478.57 176161.80 705046.88
 -262667.30 382798.11 651514.77
 -178133.81 532147.04 570164.78
 -101085.06 620291.94 494994.67
 -50442.956 659819.34 449548.61
 -391999.95 -474764.42 510817.76
 -443967.29 -417476.88 518272.22
 -498110.70 -317728.09 539383.53
 -532147.04 -178133.81 570164.78
 -533475.50 -4667.3970 596139.33
 -494913.91 184333.96 600900.33
 -418472.59 360197.10 578911.69
 -317728.09 498110.70 539383.53
 -215165.31 587818.18 498170.33
 -140947.03 631570.18 470375.43
 -477818.31 -355924.99 533860.53
 -533314.72 -302637.31 513795.75
 -587818.18 -215165.31 498170.33
 -620291.94 -101085.06 494994.67
 -622301.48 33415.509 501621.64
 -588940.56 178964.87 510999.60
 -518776.68 321268.29 517356.21
 -417476.88 443967.29 518272.22
 -302637.31 533314.72 513795.74
 -210938.52 581622.24 507169.11
 -528107.60 -250762.68 546095.63
 -581622.24 -210938.52 507169.11
 -631570.18 -140947.03 470375.43
 -659819.34 -50442.956 449548.61
 -661187.90 54204.696 447093.29
 -632573.27 167976.81 460037.88
 -570601.03 284059.58 483450.74
 -474764.42 391999.95 510817.76
 -355924.99 477818.31 533860.53
 -250762.68 528107.60 546095.63
 200827.84 -579824.13 513295.39
 314129.89 -535236.51 504821.04
 446285.22 -453474.06 484964.72
 557425.02 -345143.34 458424.93
 633918.05 -224848.63 433117.77
 674995.87 -105444.33 416247.60
 684360.55 3633.2286 414291.49
 666271.80 95763.351 432332.35
 626205.74 164344.94 469954.37
 579824.13 200827.84 513295.39
 164344.94 -626205.74 469954.37
 263114.32 -585909.30 476949.83
 391247.46 -503850.37 482763.12
 509785.18 -383157.85 483020.85
 597660.70 -236523.36 476296.54
 646047.17 -83037.511 464465.09
 655531.92 58484.418 454815.87
 632368.90 175953.49 457329.15
 585909.30 263114.32 476949.83
 535236.51 314129.89 504821.04
 95763.351 -666271.80 432332.35
 175953.49 -632368.90 457329.15
 291911.39 -553738.64 498157.87
 413117.44 -420981.10 540470.99
 512895.54 -239541.70 565294.56
 570727.61 -37391.511 559349.51
 581189.70 147509.50 529584.26
 553738.64 291911.39 498157.86
 503850.37 391247.46 482763.12
 453474.06 446285.22 484964.72
 3633.2292 -684360.55 414291.49
 58484.416 -655531.92 454815.87
 147509.50 -581189.70 529584.25
 253811.99 -439197.89 618615.13
 353867.93 -223298.37 681847.00
 419976.37 29395.052 680261.55
 439197.89 253811.99 618615.13
 420981.10 413117.44 540470.99
 383157.85 509785.18 483020.85
 345143.34 557425.02 458424.93
 -105444.33 -674995.87 416247.60
 -83037.509 -646047.17 464465.09
 -37391.513 -570727.60 559349.51
 29395.054 -419976.37 680261.55
 108193.25 -178950.95 772185.72
 178950.95 108193.25 772185.72
 223298.37 353867.93 681847.00
 239541.69 512895.54 565294.56
 236523.36 597660.70 476296.54
 224848.63 633918.05 433117.77
 -224848.63 -633918.05 433117.77
 -236523.37 -597660.70 476296.54
 -239541.69 -512895.55 565294.56
 -223298.37 -353867.93 681847.00
 -178950.95 -108193.25 772185.72
 -108193.25 178950.95 772185.72
 -29395.053 419976.37 680261.55
 37391.513 570727.61 559349.51
 83037.510 646047.17 464465.09
 105444.33 674995.87 416247.60
 -345143.34 -557425.02 458424.93
 -383157.85 -509785.18 483020.85
 -420981.10 -413117.44 540470.99
 -439197.89 -253811.99 618615.13
 -419976.37 -29395.053 680261.55
 -353867.93 223298.37 681847.00
 -253811.99 439197.89 618615.13
 -147509.50 581189.69 529584.26
 -58484.416 655531.92 454815.87
 -3633.2290 684360.55 414291.49
 -453474.06 -446285.22 484964.72
 -503850.37 -391247.46 482763.12
 -553738.64 -291911.39 498157.86
 -581189.70 -147509.50 529584.26
 -570727.61 37391.512 559349.51
 -512895.54 239541.70 565294.56
 -413117.44 420981.10 540470.99
 -291911.39 553738.64 498157.86
 -175953.49 632368.90 457329.15
 -95763.351 666271.80 432332.35
 -535236.51 -314129.89 504821.04
 -585909.30 -263114.32 476949.83
 -632368.90 -175953.49 457329.15
 -655531.92 -58484.418 454815.87
 -646047.17 83037.510 464465.09
 -597660.70 236523.36 476296.54
 -509785.17 383157.85 483020.85
 -391247.46 503850.37 482763.12
 -263114.32 585909.30 476949.83
 -164344.94 626205.74 469954.37
 -579824.13 -200827.84 513295.39
 -626205.74 -164344.94 469954.37
 -666271.80 -95763.352 432332.35
 -684360.55 -3633.2285 414291.49
 -674995.87 105444.33 416247.60
 -633918.05 224848.63 433117.77
 -557425.02 345143.34 458424.93
 -446285.22 453474.06 484964.72
 -314129.89 535236.51 504821.04
 -200827.84 579824.13 513295.39
 164448.04 -617885.70 480805.68
 282190.03 -578969.48 474513.57
 421418.11 -502759.66 457864.06
 542647.73 -396813.92 433672.87
 630423.19 -274884.43 408662.63
 682069.82 -150988.85 389850.14
 700558.29 -36808.416 384529.87
 690751.76 59042.179 399219.27