# OOMMF OVF 2.0
#
# Segment count: 1
#
# Begin: Segment
# Begin: Header
#
# Title: Oxs_MinDriver::Magnetization
# Desc: Oxs vector field output
# Desc:  MIF source file: /home/ryan/Git/joommf/tools/omfvis/cube_example.mif
# Desc:  Iteration: 5198, State id: 11058
# Desc:  Stage: 28, Stage iteration: 36
# Desc:  Stage simulation time: 0 s
# Desc:  Total simulation time: -2 s
# meshunit: m
# meshtype: rectangular
# xbase: 2.5000000000000001e-09
# ybase: 2.5000000000000001e-09
# zbase: 2.5000000000000001e-09
# xnodes: 10
# ynodes: 10
# znodes: 10
# xstepsize: 5.0000000000000001e-09
# ystepsize: 5.0000000000000001e-09
# zstepsize: 5.0000000000000001e-09
# xmin: 0
# ymin: 0
# zmin: 0
# xmax: 4.9999999999999998e-08
# ymax: 4.9999999999999998e-08
# zmax: 4.9999999999999998e-08
# valuedim: 3
# valuelabels: Magnetization_x Magnetization_y Magnetization_z
# valueunits: A/m A/m A/m
#
# End: Header
#
# Begin: Data Text
 275764.62 275764.75 698503.89
 243939.21 282177.77 707721.25
 189992.37 288839.71 721439.20
 120585.68 293807.72 734258.89
 41341.127 296424.44 741905.29
 -41341.377 296424.42 741905.29
 -120585.90 293807.64 734258.88
 -189992.56 288839.59 721439.20
 -243939.36 282177.63 707721.25
 -275764.73 275764.60 698503.90
 282177.65 243939.37 707721.24
 252474.55 252474.70 715900.22
 198350.01 260418.40 729958.58
 126583.32 266232.01 743705.04
 43514.335 269298.15 752053.86
 -43514.566 269298.11 752053.86
 -126583.53 266231.91 743705.04
 -198350.19 260418.26 729958.58
 -252474.69 252474.53 715900.23
 -282177.76 243939.19 707721.26
 288839.61 189992.58 721439.19
 260418.28 198350.21 729958.57
 206171.38 206171.54 744974.27
 132320.97 211886.05 759997.02
 45621.202 214903.14 769243.36
 -45621.382 214903.10 769243.36
 -132321.14 211885.92 759997.02
 -206171.52 206171.35 744974.28
 -260418.39 198349.99 729958.59
 -288839.70 189992.35 721439.21
 293807.66 120585.92 734258.87
 266231.93 126583.55 743705.02
 211885.95 132321.15 759997.01
 136545.93 136546.04 776344.25
 47182.211 138783.56 786455.95
 -47182.309 138783.51 786455.95
 -136546.02 136545.90 776344.26
 -211886.03 132320.94 759997.03
 -266231.99 126583.29 743705.05
 -293807.71 120585.65 734258.90
 296424.44 41341.394 741905.28
 269298.14 43514.584 752053.85
 214903.13 45621.403 769243.35
 138783.54 47182.332 786455.95
 48011.064 48011.082 797113.46
 -48011.057 48011.026 797113.47
 -138783.54 47182.175 786455.96
 -214903.12 45621.169 769243.37
 -269298.13 43514.306 752053.87
 -296424.43 41341.100 741905.30
 296424.46 -41341.111 741905.28
 269298.17 -43514.317 752053.85
 214903.17 -45621.182 769243.35
 138783.60 -47182.188 786455.95
 48011.119 -48011.040 797113.46
 -48011.002 -48011.095 797113.47
 -138783.49 -47182.344 786455.96
 -214903.08 -45621.414 769243.36
 -269298.10 -43514.595 752053.86
 -296424.40 -41341.403 741905.29
 293807.74 -120585.66 734258.89
 266232.03 -126583.30 743705.03
 211886.07 -132320.95 759997.01
 136546.07 -136545.91 776344.24
 47182.368 -138783.52 786455.95
 -47182.152 -138783.57 786455.95
 -136545.87 -136546.05 776344.25
 -211885.90 -132321.16 759997.02
 -266231.89 -126583.56 743705.04
 -293807.63 -120585.93 734258.88
 288839.72 -189992.36 721439.20
 260418.42 -198350.00 729958.58
 206171.56 -206171.37 744974.26
 132321.18 -211885.93 759997.01
 45621.435 -214903.11 769243.35
 -45621.148 -214903.15 769243.36
 -132320.92 -211886.06 759997.02
 -206171.34 -206171.54 744974.28
 -260418.24 -198350.21 729958.58
 -288839.59 -189992.58 721439.20
 282177.78 -243939.20 707721.25
 252474.72 -252474.54 715900.22
 198350.23 -260418.27 729958.57
 126583.57 -266231.92 743705.03
 43514.614 -269298.12 752053.85
 -43514.288 -269298.16 752053.86
 -126583.28 -266232.01 743705.04
 -198349.97 -260418.41 729958.59
 -252474.52 -252474.71 715900.23
 -282177.62 -243939.38 707721.25
 275764.76 -275764.62 698503.88
 243939.39 -282177.64 707721.24
 189992.60 -288839.60 721439.18
 120585.94 -293807.65 734258.87
 41341.420 -296424.42 741905.28
 -41341.084 -296424.45 741905.29
 -120585.64 -293807.72 734258.90
 -189992.34 -288839.71 721439.21
 -243939.18 -282177.77 707721.26
 -275764.60 -275764.75 698503.89
 222831.45 222831.58 735317.78
 199498.44 219836.86 742880.96
 156080.55 218962.70 753454.84
 99009.609 218776.12 763108.19
 33896.043 218725.98 768771.75
 -33896.284 218725.95 768771.75
 -99009.829 218776.05 763108.18
 -156080.73 218962.59 753454.84
 -199498.58 219836.73 742880.96
 -222831.56 222831.44 735317.79
 219836.75 199498.60 742880.95
 199511.07 199511.21 748592.42
 157545.08 200138.69 758369.34
 100427.02 200764.46 767859.39
 34452.055 201101.00 773544.73
 -34452.271 201100.97 773544.73
 -100427.22 200764.37 767859.39
 -157545.24 200138.56 758369.34
 -199511.20 199511.05 748592.43
 -219836.85 199498.42 742880.97
 218962.61 156080.75 753454.83
 200138.58 157545.26 758369.33
 159145.85 159145.99 767688.19
 101918.01 160284.67 777123.89
 35040.997 160847.08 782879.52
 -35041.163 160847.04 782879.52
 -101918.16 160284.56 777123.90
 -159145.98 159145.82 767688.20
 -200138.68 157545.06 758369.35
 -218962.68 156080.53 753454.85
 218776.07 99009.845 763108.17
 200764.39 100427.23 767859.38
 160284.58 101918.18 777123.89
 102945.44 102945.54 786641.25
 35446.493 103444.33 792491.53
 -35446.584 103444.28 792491.53
 -102945.52 102945.41 786641.25
 -160284.65 101917.99 777123.90
 -200764.45 100426.99 767859.40
 -218776.11 99009.586 763108.19
 218725.97 33896.298 768771.74
 201100.99 34452.287 773544.72
 160847.06 35041.179 782879.52
 103444.31 35446.603 792491.52
 35642.825 35642.844 798410.41
 -35642.825 35642.795 798410.41
 -103444.31 35446.465 792491.53
 -160847.06 35040.971 782879.53
 -201100.98 34452.030 773544.73
 -218725.97 33896.020 768771.76
 218726.00 -33896.029 768771.75
 201101.02 -34452.041 773544.72
 160847.10 -35040.980 782879.52
 103444.35 -35446.476 792491.52
 35642.873 -35642.806 798410.41
 -35642.776 -35642.854 798410.41
 -103444.27 -35446.612 792491.53
 -160847.02 -35041.188 782879.53
 -201100.95 -34452.294 773544.73
 -218725.94 -33896.305 768771.75
 218776.14 -99009.598 763108.18
 200764.48 -100427.01 767859.39
 160284.69 -101918.00 777123.89
 102945.57 -102945.42 786641.25
 35446.630 -103444.29 792491.52
 -35446.448 -103444.34 792491.53
 -102945.39 -102945.55 786641.25
 -160284.54 -101918.19 777123.90
 -200764.36 -100427.24 767859.39
 -218776.04 -99009.849 763108.18
 218962.71 -156080.54 753454.84
 200138.71 -157545.07 758369.34
 159146.01 -159145.83 767688.19
 101918.20 -160284.57 777123.89
 35041.205 -160847.05 782879.52
 -35040.955 -160847.08 782879.52
 -101917.97 -160284.67 777123.90
 -159145.81 -159146.00 767688.19
 -200138.55 -157545.26 758369.34
 -218962.58 -156080.75 753454.83
 219836.88 -199498.43 742880.96
 199511.23 -199511.06 748592.42
 157545.28 -200138.57 758369.33
 100427.25 -200764.38 767859.38
 34452.310 -201100.97 773544.72
 -34452.016 -201101.00 773544.73
 -100426.98 -200764.47 767859.39
 -157545.05 -200138.69 758369.34
 -199511.04 -199511.22 748592.42
 -219836.73 -199498.60 742880.96
 222831.59 -222831.45 735317.77
 199498.61 -219836.75 742880.95
 156080.77 -218962.60 753454.83
 99009.864 -218776.06 763108.17
 33896.320 -218725.96 768771.74
 -33896.007 -218725.98 768771.75
 -99009.575 -218776.12 763108.19
 -156080.52 -218962.70 753454.85
 -199498.41 -219836.86 742880.97
 -222831.43 -222831.57 735317.78
 156422.57 156422.69 768806.82
 139627.48 148943.12 773511.55
 108947.36 143121.09 779517.05
 68891.504 139311.43 784758.74
 23532.478 137399.82 787761.07
 -23532.704 137399.80 787761.07
 -68891.713 139311.37 784758.74
 -108947.54 143120.99 779517.04
 -139627.62 148943.00 773511.54
 -156422.67 156422.56 768806.82
 148943.02 139627.63 773511.54
 134997.37 134997.51 776885.69
 106464.74 130715.25 782035.03
 67683.778 127742.43 786829.57
 23168.963 126222.32 789639.87
 -23169.162 126222.29 789639.87
 -67683.961 127742.35 786829.57
 -106464.90 130715.12 782035.03
 -134997.49 134997.36 776885.70
 -148943.11 139627.47 773511.55
 143121.01 108947.55 779517.04
 130715.14 106464.91 782035.02
 103885.42 103885.55 786394.06
 66369.045 101940.30 790698.00
 22769.612 100903.56 793284.32
 -22769.763 100903.53 793284.32
 -66369.186 101940.20 790698.00
 -103885.54 103885.40 786394.06
 -130715.23 106464.72 782035.03
 -143121.08 108947.35 779517.05
 139311.38 68891.724 784758.73
 127742.37 67683.974 786829.57
 101940.22 66369.197 790698.00
 65313.063 65313.154 794649.86
 22438.642 64727.607 797061.38
 -22438.727 64727.568 797061.38
 -65313.141 65313.045 794649.86
 -101940.29 66369.027 790698.00
 -127742.42 67683.760 786829.58
 -139311.42 68891.487 784758.75
 137399.82 23532.715 787761.07
 126222.31 23169.172 789639.87
 100903.55 22769.776 793284.32
 64727.587 22438.739 797061.38
 22250.972 22250.993 799380.88
 -22250.979 22250.952 799380.88
 -64727.595 22438.623 797061.38
 -100903.55 22769.594 793284.32
 -126222.31 23168.945 789639.87
 -137399.81 23532.461 787761.08
 137399.84 -23532.469 787761.07
 126222.34 -23168.952 789639.87
 100903.58 -22769.603 793284.32
 64727.625 -22438.629 797061.38
 22251.012 -22250.960 799380.88
 -22250.940 -22250.999 799380.88
 -64727.555 -22438.745 797061.38
 -100903.52 -22769.780 793284.32
 -126222.28 -23169.178 789639.87
 -137399.79 -23532.719 787761.07
 139311.44 -68891.496 784758.74
 127742.45 -67683.770 786829.57
 101940.31 -66369.035 790698.00
 65313.171 -65313.053 794649.86
 22438.758 -64727.575 797061.38
 -22438.611 -64727.613 797061.38
 -65313.034 -65313.158 794649.86
 -101940.19 -66369.201 790698.00
 -127742.35 -67683.976 786829.57
 -139311.36 -68891.726 784758.74
 143121.10 -108947.36 779517.05
 130715.26 -106464.73 782035.03
 103885.56 -103885.41 786394.06
 66369.213 -101940.21 790698.00
 22769.792 -100903.54 793284.32
 -22769.584 -100903.57 793284.32
 -66369.017 -101940.30 790698.00
 -103885.39 -103885.55 786394.06
 -130715.12 -106464.91 782035.03
 -143120.99 -108947.55 779517.04
 148943.13 -139627.48 773511.55
 134997.52 -134997.37 776885.69
 106464.92 -130715.13 782035.02
 67683.988 -127742.36 786829.57
 23169.189 -126222.30 789639.87
 -23168.935 -126222.33 789639.87
 -67683.752 -127742.43 786829.58
 -106464.72 -130715.25 782035.03
 -134997.35 -134997.50 776885.70
 -148943.00 -139627.63 773511.54
 156422.70 -156422.57 768806.82
 139627.64 -148943.01 773511.54
 108947.56 -143121.00 779517.03
 68891.738 -139311.38 784758.73
 23532.730 -137399.81 787761.07
 -23532.452 -137399.83 787761.07
 -68891.479 -139311.43 784758.75
 -108947.34 -143121.09 779517.05
 -139627.46 -148943.12 773511.55
 -156422.55 -156422.68 768806.82
 90423.433 90423.545 789713.36
 80173.106 83878.720 791540.67
 62209.259 78156.377 793738.99
 39182.708 74241.490 795583.38
 13355.964 72264.975 796617.47
 -13356.179 72264.955 796617.47
 -39182.907 74241.434 795583.38
 -62209.430 78156.288 793738.99
 -80173.239 83878.608 791540.67
 -90423.535 90423.421 789713.36
 83878.620 80173.249 791540.67
 75617.630 75617.757 792820.24
 59393.084 71057.051 794621.52
 37646.825 67797.041 796232.55
 12865.301 66129.285 797158.33
 -12865.488 66129.263 797158.33
 -37647.000 67796.970 796232.55
 -59393.233 71056.942 794621.52
 -75617.749 75617.619 792820.24
 -83878.711 80173.094 791540.67
 78156.299 62209.438 793738.99
 71056.953 59393.242 794621.52
 56321.302 56321.424 796025.00
 35912.871 54006.356 797366.65
 12306.300 52792.243 798161.35
 -12306.442 52792.212 798161.35
 -35913.001 54006.273 797366.65
 -56321.416 56321.291 796025.01
 -71057.042 59393.073 794621.52
 -78156.369 62209.248 793738.99
 74241.444 39182.915 795583.38
 67796.981 37647.006 796232.55
 54006.283 35913.010 797366.65
 34560.534 34560.619 798505.56
 11863.841 33836.573 799196.06
 -11863.924 33836.541 799196.06
 -34560.612 34560.523 798505.56
 -54006.348 35912.860 797366.65
 -67797.034 37646.814 796232.55
 -74241.482 39182.697 795583.38
 72264.964 13356.185 796617.47
 66129.272 12865.497 797158.33
 52792.223 12306.448 798161.34
 33836.552 11863.932 799196.06
 11624.478 11624.502 799831.07
 -11624.495 11624.468 799831.07
 -33836.565 11863.831 799196.06
 -52792.235 12306.289 798161.35
 -66129.278 12865.292 797158.33
 -72264.968 13355.954 796617.47
 72264.983 -13355.958 796617.47
 66129.295 -12865.297 797158.33
 52792.251 -12306.292 798161.35
 33836.584 -11863.835 799196.06
 11624.513 -11624.470 799831.07
 -11624.460 -11624.506 799831.07
 -33836.534 -11863.934 799196.06
 -52792.204 -12306.451 798161.35
 -66129.257 -12865.498 797158.33
 -72264.949 -13356.187 796617.47
 74241.497 -39182.704 795583.38
 67797.048 -37646.819 796232.55
 54006.365 -35912.866 797366.65
 34560.629 -34560.527 798505.56
 11863.942 -33836.545 799196.06
 -11863.824 -33836.576 799196.06
 -34560.516 -34560.621 798505.56
 -54006.267 -35913.010 797366.65
 -67796.965 -37647.007 796232.55
 -74241.429 -39182.914 795583.38
 78156.383 -62209.255 793738.99
 71057.057 -59393.080 794621.52
 56321.431 -56321.297 796025.00
 35913.018 -54006.278 797366.65
 12306.458 -52792.216 798161.35
 -12306.282 -52792.244 798161.35
 -35912.854 -54006.357 797366.65
 -56321.286 -56321.424 796025.01
 -71056.938 -59393.239 794621.52
 -78156.284 -62209.436 793738.99
 83878.724 -80173.103 791540.67
 75617.763 -75617.626 792820.24
 59393.248 -71056.949 794621.51
 37647.015 -67796.976 796232.55
 12865.505 -66129.265 797158.33
 -12865.286 -66129.287 797158.33
 -37646.809 -67797.041 796232.55
 -59393.069 -71057.049 794621.52
 -75617.615 -75617.755 792820.24
 -83878.605 -80173.244 791540.67
 90423.549 -90423.431 789713.36
 80173.253 -83878.617 791540.67
 62209.444 -78156.295 793738.99
 39182.922 -74241.439 795583.38
 13356.194 -72264.959 796617.47
 -13355.948 -72264.976 796617.47
 -39182.693 -74241.490 795583.38
 -62209.244 -78156.375 793738.99
 -80173.091 -83878.715 791540.67
 -90423.419 -90423.539 789713.36
 29317.026 29317.136 798924.91
 25878.402 26823.956 799131.27
 20002.980 24561.784 799372.63
 12567.230 22992.838 799570.76
 4278.3378 22199.379 799680.49
 -4278.5493 22199.362 799680.49
 -12567.427 22992.786 799570.75
 -20003.150 24561.702 799372.63
 -25878.538 26823.853 799131.27
 -29317.131 29317.020 798924.91
 26823.858 25878.543 799131.27
 24093.720 24093.844 799274.03
 18869.016 22260.354 799467.60
 11938.299 20937.147 799636.86
 4076.0204 20259.934 799733.03
 -4076.2050 20259.912 799733.03
 -11938.471 20937.084 799636.86
 -18869.166 22260.253 799467.60
 -24093.839 24093.715 799274.03
 -26823.952 25878.397 799131.27
 24561.707 20003.155 799372.63
 22260.257 18869.169 799467.59
 17609.151 17609.269 799612.30
 11216.475 16656.748 799747.92
 3841.6140 16158.671 799827.57
 -3841.7545 16158.645 799827.57
 -11216.607 16656.671 799747.92
 -17609.264 17609.146 799612.30
 -22260.350 18869.011 799467.60
 -24561.779 20002.975 799372.63
 22992.790 12567.431 799570.75
 20937.088 11938.476 799636.86
 16656.674 11216.610 799747.92
 10654.400 10654.485 799858.09
 3656.7711 10355.362 799924.62
 -3656.8569 10355.332 799924.62
 -10654.480 10654.396 799858.09
 -16656.744 11216.471 799747.93
 -20937.143 11938.296 799636.86
 -22992.834 12567.226 799570.76
 22199.365 4278.5532 799680.49
 20259.915 4076.2075 799733.03
 16158.648 3841.7594 799827.57
 10355.335 3656.8604 799924.62
 3557.5609 3557.5897 799984.18
 -3557.5851 3557.5569 799984.18
 -10355.358 3656.7680 799924.62
 -16158.667 3841.6110 799827.57
 -20259.930 4076.0163 799733.03
 -22199.375 4278.3347 799680.49
 22199.382 -4278.3351 799680.49
 20259.936 -4076.0160 799733.03
 16158.674 -3841.6114 799827.57
 10355.365 -3656.7666 799924.62
 3557.5922 -3557.5571 799984.18
 -3557.5532 -3557.5876 799984.18
 -10355.328 -3656.8602 799924.62
 -16158.642 -3841.7577 799827.57
 -20259.908 -4076.2068 799733.03
 -22199.359 -4278.5522 799680.49
 22992.839 -12567.227 799570.76
 20937.150 -11938.297 799636.86
 16656.750 -11216.471 799747.92
 10654.487 -10654.397 799858.09
 3656.8638 -10355.331 799924.62
 -3656.7635 -10355.361 799924.62
 -10654.393 -10654.483 799858.09
 -16656.667 -11216.609 799747.92
 -20937.081 -11938.473 799636.86
 -22992.782 -12567.429 799570.75
 24561.784 -20002.978 799372.63
 22260.355 -18869.012 799467.60
 17609.271 -17609.148 799612.30
 11216.612 -16656.671 799747.92
 3841.7620 -16158.644 799827.57
 -3841.6077 -16158.670 799827.57
 -11216.467 -16656.747 799747.93
 -17609.144 -17609.266 799612.30
 -22260.249 -18869.167 799467.60
 -24561.699 -20003.151 799372.63
 26823.957 -25878.400 799131.27
 24093.844 -24093.718 799274.03
 18869.171 -22260.254 799467.60
 11938.478 -20937.084 799636.86
 4076.2103 -20259.912 799733.03
 -4076.0128 -20259.932 799733.03
 -11938.293 -20937.145 799636.86
 -18869.008 -22260.351 799467.60
 -24093.712 -24093.840 799274.03
 -26823.850 -25878.538 799131.27
 29317.135 -29317.023 798924.91
 25878.543 -26823.855 799131.27
 20003.156 -24561.704 799372.63
 12567.433 -22992.786 799570.75
 4278.5557 -22199.361 799680.49
 -4278.3315 -22199.378 799680.49
 -12567.223 -22992.835 799570.76
 -20002.973 -24561.780 799372.63
 -25878.394 -26823.952 799131.27
 -29317.017 -29317.130 798924.91
 -29317.132 -29317.019 798924.91
 -25878.540 -26823.851 799131.27
 -20003.153 -24561.700 799372.63
 -12567.430 -22992.783 799570.75
 -4278.5532 -22199.359 799680.49
 4278.3329 -22199.376 799680.49
 12567.225 -22992.834 799570.76
 20002.974 -24561.780 799372.63
 25878.396 -26823.952 799131.27
 29317.019 -29317.131 798924.91
 -26823.953 -25878.395 799131.27
 -24093.841 -24093.713 799274.03
 -18869.168 -22260.250 799467.60
 -11938.474 -20937.082 799636.86
 -4076.2091 -20259.909 799733.03
 4076.0158 -20259.931 799733.03
 11938.294 -20937.144 799636.86
 18869.011 -22260.350 799467.60
 24093.713 -24093.840 799274.03
 26823.852 -25878.539 799131.27
 -24561.781 -20002.974 799372.63
 -22260.352 -18869.009 799467.60
 -17609.268 -17609.145 799612.30
 -11216.611 -16656.668 799747.92
 -3841.7586 -16158.642 799827.57
 3841.6090 -16158.668 799827.57
 11216.470 -16656.746 799747.93
 17609.145 -17609.265 799612.30
 22260.252 -18869.166 799467.60
 24561.701 -20003.151 799372.63
 -22992.836 -12567.224 799570.76
 -20937.146 -11938.293 799636.86
 -16656.748 -11216.468 799747.93
 -10654.484 -10654.394 799858.09
 -3656.8616 -10355.328 799924.62
 3656.7665 -10355.360 799924.62
 10654.395 -10654.480 799858.09
 16656.669 -11216.608 799747.92
 20937.082 -11938.472 799636.86
 22992.785 -12567.428 799570.75
 -22199.379 -4278.3321 799680.49
 -20259.934 -4076.0140 799733.03
 -16158.671 -3841.6080 799827.57
 -10355.363 -3656.7646 799924.62
 -3557.5895 -3557.5545 799984.18
 3557.5562 -3557.5852 799984.18
 10355.330 -3656.8586 799924.62
 16158.644 -3841.7556 799827.57
 20259.911 -4076.2055 799733.03
 22199.361 -4278.5506 799680.49
 -22199.363 4278.5550 799680.49
 -20259.912 4076.2102 799733.03
 -16158.646 3841.7608 799827.57
 -10355.332 3656.8633 799924.62
 -3557.5578 3557.5917 799984.18
 3557.5876 3557.5592 799984.18
 10355.361 3656.7706 799924.62
 16158.670 3841.6129 799827.57
 20259.933 4076.0188 799733.03
 22199.378 4278.3367 799680.49
 -22992.787 12567.432 799570.75
 -20937.085 11938.477 799636.86
 -16656.672 11216.612 799747.92
 -10654.398 10654.486 799858.09
 -3656.7683 10355.364 799924.62
 3656.8598 10355.334 799924.62
 10654.483 10654.399 799858.09
 16656.747 11216.474 799747.92
 20937.146 11938.298 799636.86
 22992.836 12567.229 799570.76
 -24561.704 20003.156 799372.63
 -22260.255 18869.170 799467.60
 -17609.148 17609.270 799612.30
 -11216.473 16656.750 799747.92
 -3841.6119 16158.673 799827.57
 3841.7578 16158.647 799827.57
 11216.610 16656.674 799747.92
 17609.268 17609.149 799612.30
 22260.353 18869.015 799467.60
 24561.782 20002.979 799372.63
 -26823.856 25878.543 799131.27
 -24093.717 24093.845 799274.03
 -18869.014 22260.354 799467.60
 -11938.297 20937.149 799636.86
 -4076.0174 20259.936 799733.03
 4076.2070 20259.914 799733.03
 11938.474 20937.086 799636.86
 18869.169 22260.256 799467.60
 24093.842 24093.718 799274.03
 26823.956 25878.401 799131.27
 -29317.024 29317.135 798924.91
 -25878.401 26823.956 799131.27
 -20002.978 24561.784 799372.63
 -12567.228 22992.839 799570.76
 -4278.3357 22199.381 799680.49
 4278.5521 22199.364 799680.49
 12567.430 22992.788 799570.75
 20003.154 24561.705 799372.63
 25878.542 26823.857 799131.27
 29317.134 29317.024 798924.91
 -90423.544 -90423.422 789713.36
 -80173.249 -83878.609 791540.67
 -62209.440 -78156.287 793738.99
 -39182.919 -74241.432 795583.38
 -13356.192 -72264.952 796617.47
 13355.951 -72264.971 796617.47
 39182.693 -74241.485 795583.38
 62209.245 -78156.371 793738.99
 80173.091 -83878.712 791540.67
 90423.419 -90423.537 789713.36
 -83878.720 -80173.094 791540.67
 -75617.759 -75617.618 792820.24
 -59393.244 -71056.941 794621.52
 -37647.012 -67796.968 796232.55
 -12865.501 -66129.259 797158.33
 12865.287 -66129.281 797158.33
 37646.812 -67797.036 796232.55
 59393.069 -71057.044 794621.52
 75617.617 -75617.751 792820.24
 83878.606 -80173.241 791540.67
 -78156.378 -62209.247 793738.99
 -71057.053 -59393.072 794621.52
 -56321.428 -56321.289 796025.01
 -35913.014 -54006.270 797366.65
 -12306.456 -52792.208 798161.35
 12306.286 -52792.238 798161.35
 35912.855 -54006.350 797366.65
 56321.288 -56321.420 796025.01
 71056.939 -59393.235 794621.52
 78156.286 -62209.432 793738.99
 -74241.493 -39182.695 795583.38
 -67797.045 -37646.812 796232.55
 -54006.360 -35912.856 797366.65
 -34560.626 -34560.520 798505.56
 -11863.938 -33836.537 799196.06
 11863.826 -33836.568 799196.06
 34560.520 -34560.616 798505.56
 54006.269 -35913.004 797366.65
 67796.968 -37647.003 796232.55
 74241.431 -39182.910 795583.38
 -72264.980 -13355.951 796617.47
 -66129.290 -12865.287 797158.33
 -52792.248 -12306.286 798161.35
 -33836.579 -11863.826 799196.06
 -11624.510 -11624.463 799831.07
 11624.464 -11624.499 799831.07
 33836.538 -11863.926 799196.06
 52792.208 -12306.446 798161.35
 66129.259 -12865.492 797158.33
 72264.952 -13356.183 796617.47
 -72264.961 13356.193 796617.47
 -66129.269 12865.502 797158.33
 -52792.219 12306.457 798161.35
 -33836.548 11863.938 799196.06
 -11624.475 11624.510 799831.07
 11624.499 11624.475 799831.07
 33836.569 11863.837 799196.06
 52792.239 12306.297 798161.35
 66129.282 12865.297 797158.33
 72264.972 13355.960 796617.47
 -74241.441 39182.921 795583.38
 -67796.979 37647.013 796232.55
 -54006.280 35913.016 797366.65
 -34560.531 34560.627 798505.56
 -11863.837 33836.580 799196.06
 11863.928 33836.548 799196.06
 34560.617 34560.531 798505.56
 54006.352 35912.866 797366.65
 67797.038 37646.822 796232.55
 74241.487 39182.704 795583.38
 -78156.297 62209.443 793738.99
 -71056.950 59393.247 794621.51
 -56321.300 56321.430 796025.00
 -35912.867 54006.362 797366.65
 -12306.296 52792.249 798161.35
 12306.446 52792.219 798161.35
 35913.006 54006.279 797366.65
 56321.422 56321.299 796025.01
 71057.046 59393.079 794621.52
 78156.374 62209.255 793738.99
 -83878.618 80173.253 791540.67
 -75617.629 75617.762 792820.24
 -59393.081 71057.056 794621.52
 -37646.823 67797.046 796232.55
 -12865.298 66129.291 797158.33
 12865.492 66129.269 797158.33
 37647.005 67796.978 796232.55
 59393.237 71056.948 794621.52
 75617.755 75617.627 792820.24
 83878.716 80173.101 791540.67
 -90423.432 90423.548 789713.36
 -80173.104 83878.724 791540.67
 -62209.258 78156.381 793738.99
 -39182.705 74241.495 795583.38
 -13355.961 72264.981 796617.47
 13356.183 72264.961 796617.47
 39182.911 74241.440 795583.38
 62209.435 78156.295 793738.99
 80173.245 83878.615 791540.67
 90423.541 90423.429 789713.36
 -156422.69 -156422.56 768806.82
 -139627.64 -148943.00 773511.54
 -108947.56 -143120.99 779517.04
 -68891.733 -139311.37 784758.74
 -23532.726 -137399.80 787761.07
 23532.454 -137399.82 787761.08
 68891.481 -139311.43 784758.75
 108947.34 -143121.08 779517.05
 139627.46 -148943.11 773511.55
 156422.55 -156422.68 768806.82
 -148943.13 -139627.47 773511.55
 -134997.51 -134997.36 776885.70
 -106464.92 -130715.12 782035.02
 -67683.982 -127742.35 786829.57
 -23169.186 -126222.29 789639.87
 23168.939 -126222.32 789639.87
 67683.753 -127742.42 786829.58
 106464.72 -130715.24 782035.03
 134997.35 -134997.50 776885.70
 148943.00 -139627.63 773511.54
 -143121.09 -108947.34 779517.05
 -130715.25 -106464.72 782035.03
 -103885.56 -103885.40 786394.06
 -66369.209 -101940.20 790698.00
 -22769.787 -100903.52 793284.32
 22769.587 -100903.55 793284.32
 66369.021 -101940.29 790698.00
 103885.39 -103885.54 786394.06
 130715.12 -106464.90 782035.03
 143120.99 -108947.54 779517.04
 -139311.44 -68891.484 784758.74
 -127742.44 -67683.756 786829.57
 -101940.31 -66369.023 790698.00
 -65313.165 -65313.038 794649.86
 -22438.753 -64727.562 797061.38
 22438.616 -64727.601 797061.38
 65313.037 -65313.146 794649.86
 101940.20 -66369.192 790698.00
 127742.35 -67683.966 786829.57
 139311.36 -68891.718 784758.74
 -137399.83 -23532.456 787761.07
 -126222.33 -23168.941 789639.87
 -100903.57 -22769.587 793284.32
 -64727.620 -22438.617 797061.38
 -22251.005 -22250.945 799380.88
 22250.945 -22250.985 799380.88
 64727.561 -22438.734 797061.38
 100903.52 -22769.768 793284.32
 126222.29 -23169.169 789639.87
 137399.80 -23532.710 787761.07
 -137399.81 23532.726 787761.07
 -126222.31 23169.186 789639.87
 -100903.54 22769.787 793284.32
 -64727.581 22438.754 797061.38
 -22250.966 22251.005 799380.88
 22250.986 22250.965 799380.88
 64727.601 22438.636 797061.38
 100903.55 22769.605 793284.32
 126222.32 23168.957 789639.87
 137399.82 23532.471 787761.08
 -139311.38 68891.735 784758.73
 -127742.37 67683.984 786829.57
 -101940.22 66369.210 790698.00
 -65313.057 65313.165 794649.86
 -22438.636 64727.620 797061.38
 22438.734 64727.581 797061.38
 65313.147 65313.056 794649.86
 101940.29 66369.040 790698.00
 127742.43 67683.770 786829.57
 139311.43 68891.497 784758.74
 -143121.00 108947.56 779517.03
 -130715.14 106464.92 782035.02
 -103885.41 103885.56 786394.06
 -66369.042 101940.31 790698.00
 -22769.606 100903.57 793284.32
 22769.769 100903.54 793284.32
 66369.193 101940.21 790698.00
 103885.54 103885.41 786394.06
 130715.24 106464.74 782035.03
 143121.08 108947.36 779517.05
 -148943.02 139627.64 773511.54
 -134997.37 134997.52 776885.69
 -106464.74 130715.25 782035.03
 -67683.772 127742.44 786829.57
 -23168.958 126222.33 789639.87
 23169.169 126222.31 789639.87
 67683.967 127742.36 786829.57
 106464.91 130715.13 782035.02
 134997.50 134997.37 776885.70
 148943.12 139627.48 773511.55
 -156422.57 156422.69 768806.82
 -139627.48 148943.13 773511.54
 -108947.36 143121.10 779517.05
 -68891.500 139311.44 784758.74
 -23532.472 137399.83 787761.07
 23532.710 137399.81 787761.07
 68891.720 139311.38 784758.73
 108947.55 143121.00 779517.04
 139627.63 148943.01 773511.54
 156422.68 156422.57 768806.82
 -222831.58 -222831.44 735317.78
 -199498.60 -219836.73 742880.96
 -156080.76 -218962.59 753454.83
 -99009.858 -218776.05 763108.18
 -33896.315 -218725.95 768771.75
 33896.011 -218725.97 768771.75
 99009.578 -218776.11 763108.19
 156080.52 -218962.69 753454.85
 199498.42 -219836.85 742880.97
 222831.43 -222831.57 735317.79
 -219836.87 -199498.42 742880.97
 -199511.22 -199511.05 748592.42
 -157545.27 -200138.55 758369.33
 -100427.25 -200764.37 767859.39
 -34452.304 -201100.96 773544.73
 34452.020 -201100.99 773544.73
 100426.99 -200764.45 767859.40
 157545.05 -200138.68 758369.35
 199511.04 -199511.21 748592.43
 219836.73 -199498.59 742880.96
 -218962.71 -156080.53 753454.84
 -200138.70 -157545.05 758369.34
 -159146.01 -159145.82 767688.19
 -101918.20 -160284.55 777123.89
 -35041.200 -160847.03 782879.52
 35040.961 -160847.07 782879.53
 101917.98 -160284.66 777123.90
 159145.82 -159145.98 767688.20
 200138.55 -157545.25 758369.34
 218962.58 -156080.74 753454.84
 -218776.13 -99009.581 763108.19
 -200764.47 -100426.99 767859.39
 -160284.68 -101917.98 777123.89
 -102945.56 -102945.40 786641.25
 -35446.622 -103444.27 792491.53
 35446.454 -103444.32 792491.53
 102945.40 -102945.53 786641.25
 160284.55 -101918.17 777123.90
 200764.36 -100427.23 767859.39
 218776.04 -99009.837 763108.18
 -218725.99 -33896.013 768771.75
 -201101.01 -34452.022 773544.72
 -160847.09 -35040.963 782879.52
 -103444.35 -35446.455 792491.52
 -35642.865 -35642.786 798410.41
 35642.785 -35642.835 798410.41
 103444.27 -35446.593 792491.53
 160847.03 -35041.173 782879.52
 201100.96 -34452.279 773544.73
 218725.95 -33896.292 768771.75
 -218725.97 33896.315 768771.74
 -201100.98 34452.303 773544.72
 -160847.05 35041.199 782879.52
 -103444.30 35446.622 792491.52
 -35642.816 35642.864 798410.41
 35642.834 35642.815 798410.41
 103444.32 35446.483 792491.53
 160847.07 35040.988 782879.52
 201100.99 34452.045 773544.73
 218725.97 33896.034 768771.75
 -218776.06 99009.859 763108.17
 -200764.39 100427.25 767859.38
 -160284.57 101918.20 777123.89
 -102945.43 102945.56 786641.25
 -35446.484 103444.35 792491.52
 35446.593 103444.30 792491.52
 102945.53 102945.43 786641.25
 160284.66 101918.00 777123.90
 200764.46 100427.01 767859.39
 218776.11 99009.600 763108.19
 -218962.60 156080.76 753454.83
 -200138.57 157545.27 758369.33
 -159145.84 159146.01 767688.18
 -101918.00 160284.68 777123.89
 -35040.989 160847.09 782879.52
 35041.172 160847.05 782879.52
 101918.17 160284.57 777123.89
 159145.99 159145.84 767688.19
 200138.68 157545.07 758369.34
 218962.69 156080.54 753454.85
 -219836.75 199498.61 742880.95
 -199511.07 199511.23 748592.42
 -157545.07 200138.70 758369.34
 -100427.01 200764.47 767859.39
 -34452.047 201101.01 773544.72
 34452.279 201100.98 773544.72
 100427.23 200764.39 767859.38
 157545.25 200138.57 758369.33
 199511.21 199511.06 748592.42
 219836.86 199498.43 742880.97
 -222831.45 222831.58 735317.77
 -199498.44 219836.87 742880.96
 -156080.55 218962.71 753454.84
 -99009.603 218776.13 763108.19
 -33896.036 218725.99 768771.75
 33896.292 218725.97 768771.74
 99009.838 218776.06 763108.18
 156080.74 218962.60 753454.83
 199498.59 219836.74 742880.96
 222831.57 222831.45 735317.78
 -275764.75 -275764.60 698503.89
 -243939.38 -282177.63 707721.25
 -189992.59 -288839.59 721439.19
 -120585.94 -293807.64 734258.88
 -41341.414 -296424.41 741905.29
 41341.089 -296424.44 741905.30
 120585.64 -293807.71 734258.90
 189992.34 -288839.70 721439.21