# OOMMF OVF 2.0
#
# Segment count: 1
#
# Begin: Segment
# Begin: Header
#
# Title: Oxs_MinDriver::Magnetization
# Desc: Oxs vector field output
# Desc:  MIF source file: /home/ryan/Git/joommf/tools/omfvis/cube_example.mif
# Desc:  Iteration: 5439, State id: 11560
# Desc:  Stage: 35, Stage iteration: 34
# Desc:  Stage simulation time: 0 s
# Desc:  Total simulation time: -2 s
# meshunit: m
# meshtype: rectangular
# xbase: 2.5000000000000001e-09
# ybase: 2.5000000000000001e-09
# zbase: 2.5000000000000001e-09
# xnodes: 10
# ynodes: 10
# znodes: 10
# xstepsize: 5.0000000000000001e-09
# ystepsize: 5.0000000000000001e-09
# zstepsize: 5.0000000000000001e-09
# xmin: 0
# ymin: 0
# zmin: 0
# xmax: 4.9999999999999998e-08
# ymax: 4.9999999999999998e-08
# zmax: 4.9999999999999998e-08
# valuedim: 3
# valuelabels: Magnetization_x Magnetization_y Magnetization_z
# valueunits: A/m A/m A/m
#
# End: Header
#
# Begin: Data Text
 261869.86 261869.88 709118.00
 230238.79 268584.59 717532.17
 178161.09 275355.15 729683.61
 112497.64 280279.23 740802.16
 38459.894 282825.82 747348.91
 -38459.951 282825.81 747348.91
 -112497.70 280279.22 740802.15
 -178161.14 275355.13 729683.60
 -230238.83 268584.57 717532.17
 -261869.88 261869.86 709118.00
 268584.57 230238.83 717532.17
 238768.03 238768.07 725244.54
 186298.74 246605.76 737887.78
 118251.11 252224.61 749932.94
 40529.778 255137.14 757140.92
 -40529.833 255137.13 757140.92
 -118251.16 252224.59 749932.94
 -186298.78 246605.73 737887.78
 -238768.07 238768.03 725244.54
 -268584.59 230238.79 717532.17
 275355.13 178161.14 729683.60
 246605.73 186298.78 737887.78
 193840.25 193840.28 751566.30
 123702.34 199252.21 764850.50
 42516.798 202063.85 772892.31
 -42516.843 202063.84 772892.31
 -123702.38 199252.19 764850.50
 -193840.28 193840.25 751566.30
 -246605.76 186298.74 737887.78
 -275355.15 178161.09 729683.61
 280279.22 112497.70 740802.15
 252224.59 118251.16 749932.94
 199252.19 123702.38 764850.50
 127648.90 127648.93 779366.09
 43964.680 129707.02 788189.82
 -43964.710 129707.01 788189.82
 -127648.93 127648.90 779366.09
 -199252.21 123702.34 764850.50
 -252224.61 118251.11 749932.94
 -280279.23 112497.64 740802.16
 282825.81 38459.951 747348.91
 255137.13 40529.833 757140.92
 202063.84 42516.843 772892.31
 129707.01 43964.710 788189.82
 44721.861 44721.871 797496.02
 -44721.871 44721.860 797496.02
 -129707.02 43964.679 788189.82
 -202063.85 42516.798 772892.31
 -255137.14 40529.778 757140.92
 -282825.82 38459.894 747348.91
 282825.82 -38459.894 747348.91
 255137.14 -40529.779 757140.92
 202063.85 -42516.798 772892.31
 129707.02 -43964.680 788189.82
 44721.872 -44721.861 797496.02
 -44721.860 -44721.871 797496.02
 -129707.01 -43964.710 788189.82
 -202063.84 -42516.843 772892.31
 -255137.13 -40529.833 757140.92
 -282825.81 -38459.951 747348.91
 280279.23 -112497.64 740802.16
 252224.61 -118251.11 749932.94
 199252.21 -123702.34 764850.50
 127648.93 -127648.90 779366.09
 43964.710 -129707.01 788189.82
 -43964.679 -129707.02 788189.82
 -127648.90 -127648.93 779366.09
 -199252.19 -123702.38 764850.50
 -252224.59 -118251.16 749932.94
 -280279.22 -112497.70 740802.15
 275355.15 -178161.09 729683.61
 246605.76 -186298.74 737887.78
 193840.28 -193840.25 751566.30
 123702.38 -199252.19 764850.50
 42516.844 -202063.84 772892.31
 -42516.798 -202063.85 772892.31
 -123702.34 -199252.21 764850.50
 -193840.25 -193840.28 751566.30
 -246605.73 -186298.78 737887.78
 -275355.13 -178161.14 729683.60
 268584.59 -230238.79 717532.17
 238768.07 -238768.03 725244.54
 186298.78 -246605.73 737887.78
 118251.16 -252224.59 749932.94
 40529.833 -255137.13 757140.92
 -40529.778 -255137.14 757140.92
 -118251.11 -252224.61 749932.94
 -186298.74 -246605.76 737887.78
 -238768.03 -238768.07 725244.54
 -268584.57 -230238.83 717532.17
 261869.88 -261869.86 709118.00
 230238.83 -268584.57 717532.17
 178161.14 -275355.13 729683.60
 112497.70 -280279.22 740802.15
 38459.951 -282825.81 747348.91
 -38459.894 -282825.82 747348.91
 -112497.64 -280279.23 740802.16
 -178161.09 -275355.15 729683.61
 -230238.79 -268584.59 717532.17
 -261869.86 -261869.88 709118.00
 209654.69 209654.71 743027.46
 187039.95 207403.35 749666.53
 145704.70 207187.48 758843.52
 92103.809 207461.69 767122.24
 31471.268 207647.86 771940.36
 -31471.322 207647.86 771940.36
 -92103.858 207461.68 767122.24
 -145704.74 207187.46 758843.52
 -187039.98 207403.33 749666.53
 -209654.71 209654.69 743027.46
 207403.33 187039.98 749666.53
 187551.42 187551.45 754750.90
 147447.31 188660.04 763326.06
 93655.258 189624.33 771538.27
 32066.737 190132.20 776415.78
 -32066.786 190132.20 776415.78
 -93655.305 189624.31 771538.27
 -147447.35 188660.01 763326.06
 -187551.45 187551.41 754750.90
 -207403.35 187039.95 749666.53
 207187.46 145704.74 758843.52
 188660.01 147447.35 763326.06
 149330.81 149330.85 771622.06
 95282.329 150674.19 779883.69
 32694.822 151340.72 784873.90
 -32694.863 151340.71 784873.90
 -95282.365 150674.17 779883.69
 -149330.85 149330.81 771622.06
 -188660.04 147447.32 763326.06
 -207187.48 145704.70 758843.52
 207461.68 92103.858 767122.24
 189624.31 93655.306 771538.27
 150674.17 95282.365 779883.69
 96410.749 96410.774 788295.59
 33129.740 96961.731 793410.89
 -33129.766 96961.722 793410.89
 -96410.774 96410.748 788295.59
 -150674.19 95282.329 779883.69
 -189624.33 93655.258 771538.27
 -207461.69 92103.808 767122.24
 207647.86 31471.322 771940.36
 190132.20 32066.785 776415.78
 151340.71 32694.863 784873.90
 96961.722 33129.766 793410.89
 33341.420 33341.429 798609.23
 -33341.429 33341.420 798609.23
 -96961.730 33129.739 793410.89
 -151340.72 32694.822 784873.90
 -190132.20 32066.736 776415.78
 -207647.86 31471.268 771940.36
 207647.86 -31471.268 771940.36
 190132.20 -32066.736 776415.78
 151340.72 -32694.822 784873.90
 96961.730 -33129.740 793410.89
 33341.430 -33341.420 798609.23
 -33341.420 -33341.430 798609.23
 -96961.722 -33129.766 793410.89
 -151340.71 -32694.864 784873.90
 -190132.20 -32066.785 776415.78
 -207647.86 -31471.323 771940.36
 207461.69 -92103.808 767122.24
 189624.33 -93655.259 771538.27
 150674.19 -95282.329 779883.69
 96410.774 -96410.749 788295.59
 33129.767 -96961.722 793410.89
 -33129.740 -96961.730 793410.89
 -96410.748 -96410.774 788295.59
 -150674.17 -95282.365 779883.69
 -189624.31 -93655.306 771538.27
 -207461.68 -92103.858 767122.24
 207187.48 -145704.70 758843.52
 188660.04 -147447.31 763326.06
 149330.85 -149330.81 771622.06
 95282.366 -150674.17 779883.69
 32694.863 -151340.71 784873.90
 -32694.821 -151340.72 784873.90
 -95282.329 -150674.19 779883.69
 -149330.81 -149330.85 771622.06
 -188660.01 -147447.35 763326.06
 -207187.46 -145704.74 758843.52
 207403.35 -187039.95 749666.53
 187551.45 -187551.41 754750.90
 147447.35 -188660.01 763326.06
 93655.305 -189624.31 771538.27
 32066.786 -190132.20 776415.78
 -32066.737 -190132.20 776415.78
 -93655.258 -189624.33 771538.27
 -147447.31 -188660.04 763326.06
 -187551.41 -187551.45 754750.90
 -207403.33 -187039.98 749666.53
 209654.71 -209654.69 743027.46
 187039.98 -207403.33 749666.53
 145704.74 -207187.46 758843.52
 92103.858 -207461.68 767122.24
 31471.322 -207647.86 771940.36
 -31471.268 -207647.86 771940.36
 -92103.809 -207461.69 767122.24
 -145704.70 -207187.48 758843.52
 -187039.95 -207403.35 749666.53
 -209654.69 -209654.71 743027.46
 145886.20 145886.22 772938.83
 130025.03 139382.05 776959.55
 101252.08 134555.28 782076.02
 63918.718 131507.32 786524.14
 21813.980 130005.85 789064.40
 -21814.029 130005.84 789064.40
 -63918.764 131507.31 786524.14
 -101252.12 134555.26 782076.01
 -130025.06 139382.03 776959.54
 -145886.22 145886.20 772938.83
 139382.03 130025.06 776959.54
 126147.26 126147.29 779854.94
 99288.070 122692.91 784275.67
 63018.625 120364.32 788378.77
 21553.237 119191.84 790777.32
 -21553.281 119191.84 790777.32
 -63018.664 120364.31 788378.77
 -99288.107 122692.89 784275.67
 -126147.29 126147.26 779854.94
 -139382.05 130025.03 776959.55
 134555.26 101252.12 782076.01
 122692.89 99288.107 784275.67
 97304.521 97304.548 788075.92
 62060.860 95834.519 791810.71
 21272.960 95056.864 794047.64
 -21272.994 95056.857 794047.64
 -62060.894 95834.500 791810.71
 -97304.547 97304.522 788075.92
 -122692.91 99288.069 784275.67
 -134555.28 101252.08 782076.02
 131507.31 63918.764 786524.14
 120364.31 63018.664 788378.77
 95834.501 62060.895 791810.71
 61293.981 61294.002 795289.94
 21038.991 60867.614 797403.60
 -21039.014 60867.607 797403.60
 -61294.001 61293.981 795289.94
 -95834.520 62060.860 791810.71
 -120364.32 63018.624 788378.77
 -131507.32 63918.718 786524.14
 130005.84 21814.028 789064.40
 119191.84 21553.283 790777.31
 95056.857 21272.993 794047.64
 60867.607 21039.014 797403.60
 20904.956 20904.963 799453.54
 -20904.963 20904.955 799453.54
 -60867.615 21038.992 797403.60
 -95056.863 21272.958 794047.64
 -119191.84 21553.238 790777.32
 -130005.85 21813.979 789064.40
 130005.85 -21813.979 789064.40
 119191.84 -21553.238 790777.32
 95056.864 -21272.958 794047.64
 60867.615 -21038.991 797403.60
 20904.964 -20904.956 799453.54
 -20904.956 -20904.963 799453.54
 -60867.607 -21039.015 797403.60
 -95056.857 -21272.992 794047.64
 -119191.84 -21553.283 790777.31
 -130005.84 -21814.028 789064.40
 131507.32 -63918.718 786524.14
 120364.32 -63018.624 788378.77
 95834.520 -62060.860 791810.71
 61294.002 -61293.982 795289.94
 21039.014 -60867.607 797403.60
 -21038.990 -60867.615 797403.60
 -61293.981 -61294.001 795289.94
 -95834.500 -62060.895 791810.71
 -120364.31 -63018.663 788378.77
 -131507.31 -63918.764 786524.14
 134555.28 -101252.08 782076.02
 122692.91 -99288.069 784275.67
 97304.548 -97304.522 788075.92
 62060.894 -95834.500 791810.71
 21272.994 -95056.858 794047.64
 -21272.960 -95056.864 794047.64
 -62060.860 -95834.519 791810.71
 -97304.522 -97304.548 788075.92
 -122692.89 -99288.107 784275.67
 -134555.26 -101252.12 782076.01
 139382.05 -130025.03 776959.55
 126147.29 -126147.26 779854.94
 99288.107 -122692.89 784275.67
 63018.664 -120364.31 788378.77
 21553.281 -119191.84 790777.32
 -21553.236 -119191.84 790777.32
 -63018.625 -120364.32 788378.77
 -99288.069 -122692.91 784275.67
 -126147.26 -126147.29 779854.94
 -139382.03 -130025.06 776959.54
 145886.22 -145886.20 772938.83
 130025.06 -139382.03 776959.54
 101252.12 -134555.26 782076.01
 63918.764 -131507.31 786524.14
 21814.029 -130005.84 789064.40
 -21813.980 -130005.85 789064.40
 -63918.717 -131507.32 786524.14
 -101252.08 -134555.28 782076.02
 -130025.03 -139382.05 776959.55
 -145886.20 -145886.22 772938.83
 83832.316 83832.338 791166.41
 74316.376 78081.857 792704.42
 57645.897 73196.581 794555.98
 36297.663 69926.192 796111.05
 12370.623 68295.551 796983.49
 -12370.667 68295.547 796983.49
 -36297.704 69926.181 796111.05
 -57645.933 73196.564 794555.98
 -74316.404 78081.838 792704.42
 -83832.338 83832.316 791166.41
 78081.837 74316.404 792704.42
 70382.541 70382.568 793783.72
 55264.408 66526.336 795311.32
 35020.809 63818.123 796681.11
 11966.430 62447.371 797469.20
 -11966.469 62447.366 797469.20
 -35020.847 63818.110 796681.11
 -55264.438 66526.317 795311.32
 -70382.569 70382.541 793783.72
 -78081.857 74316.376 792704.42
 73196.565 57645.933 794555.98
 66526.316 55264.439 795311.32
 52705.556 52705.582 796520.09
 33596.066 50800.778 797678.25
 11510.739 49809.318 798364.91
 -11510.770 49809.313 798364.91
 -33596.093 50800.762 797678.25
 -52705.583 52705.556 796520.09
 -66526.335 55264.408 795311.32
 -73196.582 57645.897 794555.98
 69926.181 36297.704 796111.05
 63818.111 35020.848 796681.11
 50800.762 33596.093 797678.25
 32493.982 32494.000 798679.09
 11152.243 31906.712 799285.67
 -11152.262 31906.706 799285.67
 -32494.001 32493.982 798679.09
 -50800.777 33596.065 797678.25
 -63818.124 35020.810 796681.11
 -69926.191 36297.663 796111.05
 68295.547 12370.668 796983.49
 62447.366 11966.468 797469.20
 49809.313 11510.771 798364.91
 31906.706 11152.262 799285.67
 10958.881 10958.887 799849.86
 -10958.888 10958.881 799849.86
 -31906.711 11152.242 799285.67
 -49809.319 11510.740 798364.91
 -62447.370 11966.428 797469.20
 -68295.551 12370.624 796983.49
 68295.551 -12370.623 796983.49
 62447.370 -11966.429 797469.20
 49809.319 -11510.739 798364.91
 31906.712 -11152.243 799285.67
 10958.887 -10958.881 799849.86
 -10958.880 -10958.888 799849.86
 -31906.706 -11152.261 799285.67
 -49809.313 -11510.772 798364.91
 -62447.365 -11966.467 797469.20
 -68295.547 -12370.669 796983.49
 69926.191 -36297.663 796111.05
 63818.124 -35020.809 796681.11
 50800.777 -33596.066 797678.25
 32494.001 -32493.981 798679.09
 11152.262 -31906.706 799285.67
 -11152.243 -31906.712 799285.67
 -32493.981 -32494.001 798679.09
 -50800.762 -33596.093 797678.25
 -63818.111 -35020.849 796681.11
 -69926.181 -36297.704 796111.05
 73196.581 -57645.897 794555.98
 66526.336 -55264.409 795311.32
 52705.583 -52705.555 796520.09
 33596.094 -50800.763 797678.25
 11510.770 -49809.313 798364.91
 -11510.738 -49809.319 798364.91
 -33596.066 -50800.777 797678.25
 -52705.556 -52705.583 796520.09
 -66526.316 -55264.438 795311.32
 -73196.565 -57645.934 794555.98
 78081.857 -74316.376 792704.42
 70382.568 -70382.541 793783.72
 55264.439 -66526.317 795311.32
 35020.847 -63818.110 796681.11
 11966.469 -62447.366 797469.20
 -11966.430 -62447.370 797469.20
 -35020.809 -63818.124 796681.11
 -55264.409 -66526.336 795311.32
 -70382.541 -70382.568 793783.72
 -78081.838 -74316.404 792704.42
 83832.338 -83832.316 791166.41
 74316.404 -78081.838 792704.42
 57645.933 -73196.564 794555.98
 36297.704 -69926.181 796111.05
 12370.668 -68295.547 796983.49
 -12370.623 -68295.551 796983.49
 -36297.663 -69926.192 796111.05
 -57645.897 -73196.581 794555.98
 -74316.376 -78081.858 792704.42
 -83832.316 -83832.338 791166.41
 27103.287 27103.309 799081.24
 23935.936 24909.884 799253.76
 18510.868 22965.825 799456.01
 11634.340 21641.200 799622.60
 3961.6624 20978.266 799715.09
 -3961.7045 20978.262 799715.09
 -11634.380 21641.190 799622.60
 -18510.901 22965.809 799456.01
 -23935.964 24909.865 799253.76
 -27103.309 27103.287 799081.24
 24909.865 23935.964 799253.76
 22385.330 22385.354 799373.38
 17539.835 20819.236 799536.69
 11101.857 19705.211 799680.22
 3791.3832 19140.178 799762.01
 -3791.4205 19140.174 799762.01
 -11101.891 19705.198 799680.22
 -17539.866 20819.217 799536.69
 -22385.354 22385.330 799373.38
 -24909.884 23935.936 799253.76
 22965.809 18510.901 799456.01
 20819.217 17539.866 799536.69
 16474.022 16474.045 799660.69
 10496.523 15676.601 799777.51
 3595.7741 15262.389 799846.32
 -3595.8024 15262.384 799846.32
 -10496.551 15676.586 799777.51
 -16474.044 16474.021 799660.69
 -20819.237 17539.836 799536.69
 -22965.824 18510.867 799456.01
 21641.190 11634.380 799622.60
 19705.198 11101.890 799680.22
 15676.586 10496.551 799777.51
 10028.636 10028.653 799874.27
 3442.4342 9780.8257 799932.80
 -3442.4525 9780.8199 799932.80
 -10028.653 10028.636 799874.27
 -15676.601 10496.525 799777.51
 -19705.210 11101.855 799680.22
 -21641.200 11634.341 799622.60
 20978.262 3961.7040 799715.09
 19140.174 3791.4216 799762.01
 15262.384 3595.8020 799846.32
 9780.8203 3442.4521 799932.80
 3360.4048 3360.4115 799985.88
 -3360.4109 3360.4054 799985.88
 -9780.8263 3442.4344 799932.80
 -15262.389 3595.7724 799846.32
 -19140.178 3791.3855 799762.01
 -20978.265 3961.6613 799715.09
 20978.265 -3961.6619 799715.09
 19140.178 -3791.3841 799762.01
 15262.389 -3595.7738 799846.32
 9780.8255 -3442.4337 799932.80
 3360.4119 -3360.4054 799985.88
 -3360.4057 -3360.4115 799985.88
 -9780.8196 -3442.4527 799932.80
 -15262.384 -3595.8008 799846.32
 -19140.174 -3791.4228 799762.01
 -20978.262 -3961.7035 799715.09
 21641.200 -11634.341 799622.60
 19705.210 -11101.856 799680.22
 15676.601 -10496.523 799777.51
 10028.653 -10028.637 799874.27
 3442.4520 -9780.8196 799932.80
 -3442.4337 -9780.8259 799932.80
 -10028.637 -10028.653 799874.27
 -15676.586 -10496.552 799777.51
 -19705.198 -11101.889 799680.22
 -21641.190 -11634.381 799622.60
 22965.825 -18510.868 799456.01
 20819.236 -17539.835 799536.69
 16474.045 -16474.022 799660.69
 10496.551 -15676.585 799777.51
 3595.8025 -15262.384 799846.32
 -3595.7740 -15262.389 799846.32
 -10496.523 -15676.601 799777.51
 -16474.022 -16474.044 799660.69
 -20819.217 -17539.867 799536.69
 -22965.809 -18510.901 799456.01
 24909.884 -23935.936 799253.76
 22385.354 -22385.330 799373.38
 17539.866 -20819.217 799536.69
 11101.891 -19705.199 799680.22
 3791.4208 -19140.174 799762.01
 -3791.3835 -19140.178 799762.01
 -11101.857 -19705.211 799680.22
 -17539.835 -20819.236 799536.69
 -22385.330 -22385.354 799373.38
 -24909.865 -23935.964 799253.76
 27103.309 -27103.287 799081.24
 23935.963 -24909.865 799253.76
 18510.902 -22965.810 799456.01
 11634.380 -21641.190 799622.60
 3961.7044 -20978.262 799715.09
 -3961.6623 -20978.265 799715.09
 -11634.340 -21641.200 799622.60
 -18510.868 -22965.825 799456.01
 -23935.936 -24909.884 799253.76
 -27103.287 -27103.309 799081.24
 -27103.309 -27103.287 799081.24
 -23935.963 -24909.865 799253.76
 -18510.901 -22965.809 799456.01
 -11634.380 -21641.190 799622.60
 -3961.7043 -20978.262 799715.09
 3961.6621 -20978.265 799715.09
 11634.341 -21641.200 799622.60
 18510.868 -22965.824 799456.01
 23935.936 -24909.885 799253.76
 27103.287 -27103.308 799081.24
 -24909.884 -23935.936 799253.76
 -22385.354 -22385.329 799373.38
 -17539.866 -20819.217 799536.69
 -11101.891 -19705.199 799680.22
 -3791.4211 -19140.174 799762.01
 3791.3838 -19140.179 799762.01
 11101.856 -19705.210 799680.22
 17539.835 -20819.237 799536.69
 22385.330 -22385.353 799373.38
 24909.865 -23935.964 799253.76
 -22965.824 -18510.867 799456.01
 -20819.236 -17539.836 799536.69
 -16474.045 -16474.021 799660.69
 -10496.551 -15676.586 799777.51
 -3595.8019 -15262.384 799846.32
 3595.7732 -15262.389 799846.32
 10496.524 -15676.602 799777.51
 16474.022 -16474.043 799660.69
 20819.217 -17539.867 799536.69
 22965.809 -18510.901 799456.01
 -21641.200 -11634.341 799622.60
 -19705.210 -11101.856 799680.22
 -15676.601 -10496.524 799777.51
 -10028.653 -10028.636 799874.27
 -3442.4530 -9780.8200 799932.80
 3442.4349 -9780.8257 799932.80
 10028.636 -10028.653 799874.27
 15676.586 -10496.552 799777.51
 19705.199 -11101.889 799680.22
 21641.190 -11634.381 799622.60
 -20978.265 -3961.6619 799715.09
 -19140.178 -3791.3842 799762.01
 -15262.389 -3595.7736 799846.32
 -9780.8262 -3442.4339 799932.80
 -3360.4108 -3360.4052 799985.88
 3360.4045 -3360.4116 799985.88
 9780.8205 -3442.4526 799932.80
 15262.384 -3595.8009 799846.32
 19140.174 -3791.4227 799762.01
 20978.262 -3961.7034 799715.09
 -20978.262 3961.7040 799715.09
 -19140.174 3791.4214 799762.01
 -15262.384 3595.8022 799846.32
 -9780.8199 3442.4520 799932.80
 -3360.4055 3360.4116 799985.88
 3360.4117 3360.4053 799985.88
 9780.8256 3442.4344 799932.80
 15262.389 3595.7724 799846.32
 19140.178 3791.3855 799762.01
 20978.265 3961.6614 799715.09
 -21641.190 11634.380 799622.60
 -19705.199 11101.890 799680.22
 -15676.586 10496.551 799777.51
 -10028.636 10028.653 799874.27
 -3442.4344 9780.8255 799932.80
 3442.4525 9780.8201 799932.80
 10028.653 10028.636 799874.27
 15676.601 10496.525 799777.51
 19705.210 11101.855 799680.22
 21641.200 11634.341 799622.60
 -22965.810 18510.901 799456.01
 -20819.216 17539.867 799536.69
 -16474.022 16474.044 799660.69
 -10496.524 15676.601 799777.51
 -3595.7733 15262.389 799846.32
 3595.8017 15262.384 799846.32
 10496.551 15676.586 799777.51
 16474.045 16474.021 799660.69
 20819.236 17539.836 799536.69
 22965.825 18510.867 799456.01
 -24909.865 23935.964 799253.76
 -22385.331 22385.353 799373.38
 -17539.835 20819.237 799536.69
 -11101.857 19705.210 799680.22
 -3791.3841 19140.178 799762.01
 3791.4214 19140.174 799762.01
 11101.890 19705.198 799680.22
 17539.866 20819.217 799536.69
 22385.354 22385.330 799373.38
 24909.884 23935.936 799253.76
 -27103.287 27103.308 799081.24
 -23935.936 24909.885 799253.76
 -18510.868 22965.824 799456.01
 -11634.341 21641.200 799622.60
 -3961.6621 20978.265 799715.09
 3961.7041 20978.262 799715.09
 11634.380 21641.190 799622.60
 18510.901 22965.809 799456.01
 23935.963 24909.865 799253.76
 27103.309 27103.287 799081.24
 -83832.338 -83832.316 791166.41
 -74316.404 -78081.837 792704.42
 -57645.933 -73196.565 794555.98
 -36297.704 -69926.181 796111.05
 -12370.668 -68295.547 796983.49
 12370.623 -68295.551 796983.49
 36297.663 -69926.191 796111.05
 57645.897 -73196.582 794555.98
 74316.376 -78081.857 792704.42
 83832.316 -83832.338 791166.41
 -78081.857 -74316.376 792704.42
 -70382.568 -70382.542 793783.72
 -55264.439 -66526.316 795311.32
 -35020.848 -63818.111 796681.11
 -11966.468 -62447.366 797469.20
 11966.428 -62447.370 797469.20
 35020.810 -63818.125 796681.11
 55264.408 -66526.334 795311.32
 70382.541 -70382.569 793783.72
 78081.838 -74316.404 792704.42
 -73196.581 -57645.897 794555.98
 -66526.336 -55264.407 795311.32
 -52705.583 -52705.557 796520.09
 -33596.093 -50800.761 797678.25
 -11510.772 -49809.313 798364.91
 11510.740 -49809.319 798364.91
 33596.065 -50800.776 797678.25
 52705.556 -52705.584 796520.08
 66526.317 -55264.437 795311.32
 73196.564 -57645.934 794555.98
 -69926.191 -36297.663 796111.05
 -63818.124 -35020.810 796681.11
 -50800.777 -33596.065 797678.25
 -32494.001 -32493.982 798679.09
 -11152.261 -31906.706 799285.67
 11152.241 -31906.712 799285.67
 32493.982 -32494.001 798679.09
 50800.762 -33596.092 797678.25
 63818.110 -35020.849 796681.11
 69926.181 -36297.703 796111.05
 -68295.551 -12370.623 796983.49
 -62447.370 -11966.429 797469.20
 -49809.319 -11510.739 798364.91
 -31906.712 -11152.242 799285.67
 -10958.888 -10958.881 799849.86
 10958.882 -10958.888 799849.86
 31906.705 -11152.261 799285.67
 49809.313 -11510.772 798364.91
 62447.366 -11966.467 797469.20
 68295.547 -12370.668 796983.49
 -68295.547 12370.668 796983.49
 -62447.366 11966.468 797469.20
 -49809.313 11510.771 798364.91
 -31906.706 11152.262 799285.67
 -10958.881 10958.887 799849.86
 10958.888 10958.881 799849.86
 31906.712 11152.242 799285.67
 49809.319 11510.740 798364.91
 62447.370 11966.428 797469.20
 68295.551 12370.624 796983.49
 -69926.181 36297.704 796111.05
 -63818.110 35020.848 796681.11
 -50800.762 33596.093 797678.25
 -32493.982 32494.001 798679.09
 -11152.242 31906.712 799285.67
 11152.261 31906.705 799285.67
 32494.001 32493.982 798679.09
 50800.777 33596.065 797678.25
 63818.124 35020.811 796681.11
 69926.191 36297.663 796111.05
 -73196.564 57645.934 794555.98
 -66526.317 55264.437 795311.32
 -52705.556 52705.584 796520.09
 -33596.065 50800.777 797678.25
 -11510.740 49809.319 798364.91
 11510.772 49809.314 798364.91
 33596.093 50800.761 797678.25
 52705.583 52705.557 796520.09
 66526.336 55264.407 795311.32
 73196.581 57645.897 794555.98
 -78081.838 74316.404 792704.42
 -70382.541 70382.569 793783.72
 -55264.409 66526.335 795311.32
 -35020.810 63818.125 796681.11
 -11966.429 62447.370 797469.20
 11966.467 62447.365 797469.20
 35020.848 63818.111 796681.11
 55264.439 66526.316 795311.32
 70382.568 70382.542 793783.72
 78081.858 74316.376 792704.42
 -83832.316 83832.339 791166.41
 -74316.376 78081.857 792704.42
 -57645.897 73196.582 794555.98
 -36297.663 69926.191 796111.05
 -12370.623 68295.551 796983.49
 12370.668 68295.548 796983.49
 36297.704 69926.181 796111.05
 57645.933 73196.565 794555.98
 74316.404 78081.837 792704.42
 83832.338 83832.316 791166.41
 -145886.22 -145886.20 772938.83
 -130025.06 -139382.03 776959.54
 -101252.12 -134555.26 782076.01
 -63918.764 -131507.31 786524.14
 -21814.028 -130005.84 789064.40
 21813.979 -130005.85 789064.40
 63918.718 -131507.32 786524.14
 101252.08 -134555.28 782076.02
 130025.03 -139382.05 776959.55
 145886.20 -145886.22 772938.83
 -139382.05 -130025.03 776959.54
 -126147.29 -126147.26 779854.94
 -99288.107 -122692.89 784275.67
 -63018.663 -120364.31 788378.77
 -21553.283 -119191.84 790777.32
 21553.238 -119191.84 790777.32
 63018.624 -120364.32 788378.77
 99288.069 -122692.91 784275.67
 126147.26 -126147.29 779854.94
 139382.03 -130025.06 776959.54
 -134555.28 -101252.08 782076.02
 -122692.91 -99288.071 784275.67
 -97304.548 -97304.521 788075.92
 -62060.896 -95834.501 791810.71
 -21272.992 -95056.857 794047.64
 21272.957 -95056.863 794047.64
 62060.861 -95834.521 791810.71
 97304.521 -97304.546 788075.92
 122692.89 -99288.108 784275.67
 134555.26 -101252.12 782076.01
 -131507.32 -63918.718 786524.14
 -120364.32 -63018.624 788378.77
 -95834.520 -62060.861 791810.71
 -61294.001 -61293.981 795289.94
 -21039.016 -60867.607 797403.60
 21038.992 -60867.615 797403.60
 61293.980 -61294.001 795289.94
 95834.500 -62060.896 791810.71
 120364.31 -63018.663 788378.77
 131507.31 -63918.764 786524.14
 -130005.85 -21813.979 789064.40
 -119191.84 -21553.238 790777.32
 -95056.864 -21272.958 794047.64
 -60867.615 -21038.991 797403.60
 -20904.963 -20904.956 799453.54
 20904.955 -20904.963 799453.54
 60867.607 -21039.015 797403.60
 95056.857 -21272.992 794047.64
 119191.84 -21553.283 790777.32
 130005.84 -21814.028 789064.40
 -130005.84 21814.028 789064.40
 -119191.84 21553.283 790777.32
 -95056.857 21272.993 794047.64
 -60867.608 21039.014 797403.60
 -20904.955 20904.964 799453.54
 20904.963 20904.955 799453.54
 60867.615 21038.992 797403.60
 95056.863 21272.958 794047.64
 119191.84 21553.238 790777.32
 130005.85 21813.979 789064.40
 -131507.31 63918.765 786524.14
 -120364.31 63018.663 788378.77
 -95834.500 62060.896 791810.71
 -61293.981 61294.001 795289.94
 -21038.992 60867.614 797403.60
 21039.015 60867.608 797403.60
 61294.001 61293.980 795289.94
 95834.520 62060.862 791810.71
 120364.32 63018.624 788378.77
 131507.32 63918.718 786524.14
 -134555.26 101252.12 782076.01
 -122692.89 99288.108 784275.67
 -97304.522 97304.546 788075.92
 -62060.861 95834.521 791810.71
 -21272.958 95056.864 794047.64
 21272.992 95056.857 794047.64
 62060.895 95834.502 791810.71
 97304.548 97304.520 788075.92
 122692.91 99288.071 784275.67
 134555.28 101252.08 782076.02
 -139382.03 130025.06 776959.54
 -126147.26 126147.29 779854.94
 -99288.069 122692.91 784275.67
 -63018.624 120364.32 788378.77
 -21553.238 119191.84 790777.32
 21553.283 119191.84 790777.31
 63018.663 120364.31 788378.77
 99288.107 122692.89 784275.67
 126147.29 126147.26 779854.94
 139382.05 130025.03 776959.55
 -145886.20 145886.22 772938.83
 -130025.03 139382.05 776959.54
 -101252.08 134555.28 782076.02
 -63918.718 131507.32 786524.14
 -21813.979 130005.85 789064.40
 21814.028 130005.84 789064.40
 63918.764 131507.31 786524.14
 101252.12 134555.26 782076.01
 130025.06 139382.03 776959.54
 145886.22 145886.20 772938.83
 -209654.71 -209654.69 743027.46
 -187039.98 -207403.33 749666.53
 -145704.74 -207187.46 758843.52
 -92103.858 -207461.68 767122.24
 -31471.323 -207647.86 771940.36
 31471.268 -207647.86 771940.36
 92103.808 -207461.69 767122.24
 145704.70 -207187.48 758843.52
 187039.95 -207403.35 749666.53
 209654.69 -209654.71 743027.46
 -207403.35 -187039.95 749666.53
 -187551.45 -187551.42 754750.90
 -147447.35 -188660.01 763326.06
 -93655.306 -189624.31 771538.27
 -32066.785 -190132.20 776415.78
 32066.735 -190132.20 776415.78
 93655.259 -189624.33 771538.27
 147447.31 -188660.04 763326.06
 187551.41 -187551.45 754750.90
 207403.33 -187039.98 749666.53
 -207187.48 -145704.70 758843.52
 -188660.04 -147447.31 763326.06
 -149330.85 -149330.81 771622.06
 -95282.365 -150674.17 779883.69
 -32694.865 -151340.71 784873.90
 32694.823 -151340.72 784873.90
 95282.328 -150674.19 779883.69
 149330.81 -149330.85 771622.06
 188660.01 -147447.35 763326.06
 207187.46 -145704.74 758843.52
 -207461.69 -92103.808 767122.24
 -189624.33 -93655.259 771538.27
 -150674.19 -95282.328 779883.69
 -96410.775 -96410.749 788295.59
 -33129.765 -96961.722 793410.89
 33129.738 -96961.730 793410.89
 96410.749 -96410.775 788295.59
 150674.17 -95282.364 779883.69
 189624.31 -93655.306 771538.27
 207461.68 -92103.857 767122.24
 -207647.86 -31471.268 771940.36
 -190132.20 -32066.736 776415.78
 -151340.72 -32694.822 784873.90
 -96961.730 -33129.740 793410.89
 -33341.430 -33341.420 798609.23
 33341.420 -33341.430 798609.23
 96961.721 -33129.766 793410.89
 151340.71 -32694.864 784873.90
 190132.20 -32066.785 776415.78
 207647.86 -31471.322 771940.36
 -207647.86 31471.323 771940.36
 -190132.20 32066.785 776415.78
 -151340.71 32694.864 784873.90
 -96961.722 33129.766 793410.89
 -33341.420 33341.429 798609.23
 33341.429 33341.420 798609.23
 96961.730 33129.739 793410.89
 151340.72 32694.823 784873.90
 190132.20 32066.736 776415.78
 207647.86 31471.268 771940.36
 -207461.68 92103.857 767122.24
 -189624.31 93655.306 771538.27
 -150674.17 95282.365 779883.69
 -96410.749 96410.775 788295.59
 -33129.739 96961.731 793410.89
 33129.765 96961.721 793410.89
 96410.774 96410.750 788295.59
 150674.19 95282.328 779883.69
 189624.33 93655.259 771538.27
 207461.69 92103.808 767122.24
 -207187.46 145704.74 758843.52
 -188660.01 147447.35 763326.06
 -149330.81 149330.85 771622.06
 -95282.329 150674.19 779883.69
 -32694.823 151340.72 784873.90
 32694.864 151340.71 784873.90
 95282.365 150674.17 779883.69
 149330.85 149330.82 771622.06
 188660.04 147447.31 763326.06
 207187.48 145704.70 758843.52
 -207403.33 187039.98 749666.53
 -187551.41 187551.45 754750.90
 -147447.32 188660.04 763326.06
 -93655.259 189624.33 771538.27
 -32066.736 190132.20 776415.78
 32066.785 190132.20 776415.78
 93655.306 189624.31 771538.27
 147447.35 188660.01 763326.06
 187551.45 187551.42 754750.90
 207403.35 187039.95 749666.53
 -209654.69 209654.71 743027.46
 -187039.95 207403.35 749666.53
 -145704.70 207187.48 758843.52
 -92103.809 207461.69 767122.24
 -31471.268 207647.86 771940.36
 31471.322 207647.86 771940.36
 92103.858 207461.68 767122.24
 145704.74 207187.46 758843.52
 187039.98 207403.33 749666.53
 209654.71 209654.69 743027.46
 -261869.88 -261869.86 709118.00
 -230238.83 -268584.57 717532.17
 -178161.14 -275355.13 729683.60
 -112497.70 -280279.22 740802.15
 -38459.951 -282825.81 747348.91
 38459.893 -282825.82 747348.91
 112497.64 -280279.23 740802.16
 178161.09 -275355.15 729683.61