# OOMMF OVF 2.0
#
# Segment count: 1
#
# Begin: Segment
# Begin: Header
#
# Title: Oxs_MinDriver::Magnetization
# Desc: Oxs vector field output
# Desc:  MIF source file: /home/ryan/Git/joommf/tools/omfvis/cube_example.mif
# Desc:  Iteration: 1177, State id: 2454
# Desc:  Stage: 1, Stage iteration: 173
# Desc:  Stage simulation time: 0 s
# Desc:  Total simulation time: -2 s
# meshunit: m
# meshtype: rectangular
# xbase: 2.5000000000000001e-09
# ybase: 2.5000000000000001e-09
# zbase: 2.5000000000000001e-09
# xnodes: 10
# ynodes: 10
# znodes: 10
# xstepsize: 5.0000000000000001e-09
# ystepsize: 5.0000000000000001e-09
# zstepsize: 5.0000000000000001e-09
# xmin: 0
# ymin: 0
# zmin: 0
# xmax: 4.9999999999999998e-08
# ymax: 4.9999999999999998e-08
# zmax: 4.9999999999999998e-08
# valuedim: 3
# valuelabels: Magnetization_x Magnetization_y Magnetization_z
# valueunits: A/m A/m A/m
#
# End: Header
#
# Begin: Data Text
 -313321.42 124259.29 725526.92
 -414967.63 150839.56 667120.15
 -531782.16 181189.26 569542.08
 -633691.86 205765.20 442826.51
 -709544.36 219885.89 296979.80
 -754807.86 223364.25 142735.79
 -768328.96 222774.03 -6506.9686
 -753311.95 230992.97 -138431.77
 -716842.91 259132.05 -242872.03
 -674159.66 303264.96 -305841.66
 -345420.57 110298.65 713105.07
 -450578.89 136025.60 646896.98
 -565730.36 170038.57 539477.57
 -659702.94 200308.37 405793.77
 -724227.52 220894.84 258263.36
 -758262.44 231334.89 107341.73
 -762992.02 237735.90 -36398.160
 -741458.07 251597.81 -164129.43
 -699185.36 281816.19 -267804.90
 -652256.17 321352.95 -333607.82
 -394445.04 91622.120 689940.93
 -497459.87 118320.94 615251.03
 -605384.98 156372.24 499055.85
 -687503.00 192803.56 360785.82
 -738567.62 220676.05 214055.96
 -760444.04 239037.68 67718.895
 -755578.34 253054.47 -71167.412
 -726082.73 272129.28 -196849.00
 -676063.39 302812.86 -302064.00
 -622765.16 337969.05 -371403.39
 -448732.48 73472.902 658210.37
 -545127.10 100911.54 576761.05
 -642118.00 141535.29 455688.74
 -711475.21 182377.65 317082.67
 -750381.77 216119.14 173838.18
 -762058.43 241287.47 32361.994
 -748834.70 261864.67 -103312.58
 -711428.23 285145.46 -229263.90
 -652804.37 315861.27 -337754.52
 -591678.86 347762.90 -411068.23
 -501706.91 58081.070 620416.61
 -588885.82 84655.508 534833.56
 -673753.69 125236.61 412761.13
 -731454.76 167890.78 277103.98
 -760631.52 205410.51 138730.70
 -764491.85 235690.47 1486.1101
 -744361.88 261368.80 -132709.21
 -699441.35 287835.12 -260639.10
 -631855.55 318375.28 -373357.40
 -562198.53 347578.72 -450690.41
 -550429.25 46773.677 578653.49
 -627328.62 70218.178 491455.19
 -700472.37 107677.66 371138.75
 -748361.65 149390.24 240077.90
 -770114.04 188577.68 106596.53
 -768003.39 222273.74 -27661.910
 -741946.13 251575.08 -161944.18
 -689753.72 280112.48 -292876.78
 -613066.52 309944.56 -409980.26
 -534692.73 336352.56 -490887.60
 -593562.81 40811.836 534806.11
 -660238.96 58482.688 447955.68
 -722842.11 89758.760 330821.18
 -762751.94 128086.94 204458.33
 -778754.62 167185.51 74767.985
 -771653.04 202904.76 -58148.416
 -739892.45 234536.82 -193782.47
 -680279.78 263973.94 -327928.61
 -594472.39 292194.49 -448581.05
 -507651.24 315229.49 -531902.80
 -629783.54 41200.525 491604.73
 -687238.55 50160.838 406432.11
 -740971.15 72733.775 292697.04
 -774545.86 106099.90 169769.04
 -785805.82 144091.70 41794.723
 -773840.40 180995.04 -91716.020
 -735866.57 214039.53 -229537.51
 -668414.14 243300.21 -366097.72
 -573909.27 268758.68 -488259.08
 -479711.89 287514.37 -572024.46
 -656952.43 47540.728 454041.17
 -707146.22 44792.155 371399.90
 -754268.95 57759.877 260273.23
 -783210.40 86309.993 138318.68
 -790378.91 123358.38 9159.0288
 -773190.57 161351.27 -127051.61
 -728220.92 195403.94 -267416.51
 -652828.43 223723.28 -404676.34
 -551237.10 245208.62 -525366.91
 -452246.33 258302.92 -607250.24
 -672103.02 55823.432 430303.71
 -717784.65 40098.049 350966.29
 -761466.37 46337.480 240877.17
 -788063.77 72630.504 116962.84
 -792234.19 110018.55 -16152.562
 -770149.77 149428.63 -156653.82
 -718530.35 184366.98 -299537.89
 -636527.96 211550.05 -435980.20
 -531073.04 228678.95 -552871.93
 -431831.48 234202.86 -631403.67
 -244422.28 92159.629 756151.01
 -331706.22 125194.79 717145.21
 -450310.09 174230.09 637859.47
 -570928.40 226173.94 512724.20
 -672074.06 266721.45 342309.99
 -734584.27 283367.10 141735.79
 -748149.77 277661.94 -56353.906
 -719323.13 269579.60 -223385.47
 -664469.36 278615.58 -347640.36
 -607700.59 306298.05 -420572.82
 -272160.68 89918.925 746888.98
 -363321.55 124669.82 701751.30
 -482762.32 178764.12 612359.31
 -596966.13 236362.32 477246.58
 -685132.75 281554.90 302191.92
 -733144.02 302417.31 105088.65
 -736251.65 301033.38 -85512.667
 -701191.78 295331.29 -247203.40
 -641188.62 302382.29 -370731.85
 -580081.01 321481.73 -447387.44
 -315780.11 82727.596 730369.13
 -408768.58 120556.34 677033.54
 -525005.40 179915.08 576194.32
 -628007.96 243011.27 431916.11
 -699371.19 293000.11 255011.51
 -730811.21 319116.79 63870.595
 -721898.36 323581.75 -118985.75
 -678496.87 320930.22 -276849.76
 -611343.76 325058.52 -400744.01
 -545208.72 336331.38 -479195.84
 -365013.03 74011.429 708016.80
 -457158.91 113616.08 646604.30
 -566664.33 175644.00 536694.25
 -656808.22 241572.89 387615.15
 -712650.19 294805.07 212649.20
 -730161.55 325687.21 28141.664
 -710658.21 335835.24 -148928.19
 -658543.35 336342.73 -305277.30
 -583189.86 338433.11 -430525.97
 -511096.47 344407.30 -510062.75
 -414521.41 65770.262 681062.61
 -503661.80 104648.52 612677.31
 -604650.53 165704.35 496930.39
 -682630.66 231330.18 347133.60
 -726010.94 286013.75 176363.99
 -732935.11 320625.23 -2362.3978
 -704585.67 335501.75 -176061.39
 -643831.78 338779.05 -332730.22
 -559627.48 339686.11 -459815.64
 -480899.29 342167.21 -540053.21
 -462137.79 59376.573 650309.99
 -546800.04 94615.927 576244.35
 -638786.74 150891.42 457365.58
 -706262.93 213243.67 309386.18
 -740144.16 267678.87 143299.16
 -738987.49 304814.71 -31392.422
 -702831.35 323156.69 -203955.49
 -633323.91 328408.45 -362006.51
 -539830.38 328414.02 -490639.78
 -454186.80 328349.76 -570877.21
 -506860.78 56378.979 616371.28
 -586151.31 84823.639 537802.56
 -669369.70 132647.84 417550.90
 -728099.88 189066.94 272257.71
 -754655.00 241691.64 109913.48
 -746698.25 280143.12 -62940.864
 -702759.18 300644.78 -236097.97
 -623982.37 306904.04 -395545.08
 -521020.72 305896.55 -524370.77
 -428727.86 303741.60 -603268.98
 -547277.53 58545.813 580568.42
 -620820.59 76738.453 498691.29
 -695983.81 112896.69 377969.42
 -747588.56 161293.06 234725.13
 -768170.63 210789.11 74039.368
 -753595.81 249448.45 -99341.932
 -701071.28 270943.12 -274023.52
 -612451.96 277334.82 -433575.82
 -500590.60 275092.25 -560119.01
 -402773.78 271106.09 -635826.05
 -580626.62 67038.487 546240.40
 -648598.34 71425.729 462837.50
 -717017.62 94233.481 342061.07
 -763197.64 133882.02 199009.98
 -778717.23 179503.45 37121.175
 -757239.54 217467.14 -138911.19
 -695425.00 239040.43 -315029.74
 -597385.97 244928.28 -472377.12
 -478785.92 241114.08 -593824.93
 -377705.64 235097.28 -664881.73
 -602554.01 79581.372 520187.92
 -665577.92 68787.520 438490.95
 -729606.45 80930.883 318000.98
 -772679.43 113958.18 173147.41
 -784558.36 156224.64 7876.7403
 -757166.00 193022.49 -171586.63
 -687672.52 214044.37 -348269.31
 -583170.09 219020.87 -501938.75
 -461818.17 213188.71 -617474.34
 -360598.86 203566.12 -684492.00
 -141256.91 78932.505 783464.19
 -205952.56 119110.05 763803.86
 -311440.34 193430.66 711048.17
 -443350.40 291183.14 598876.28
 -576502.80 383822.82 400405.49
 -666582.24 424112.98 125683.31
 -680114.44 394439.84 -147856.57
 -632509.48 339684.79 -352910.75
 -559811.56 304997.36 -483309.04
 -495611.13 302881.09 -550120.58
 -167505.25 81192.039 778042.32
 -236516.39 126414.42 753710.42
 -344916.65 209439.16 690773.29
 -471305.51 315057.42 564455.43
 -586704.83 410420.89 356836.30
 -654519.54 451416.14 88473.941
 -655269.24 425450.26 -172088.06
 -603807.67 371421.27 -370759.41
 -528638.83 330903.22 -501042.97
 -461425.45 317341.31 -571297.69
 -207243.65 81826.357 768345.31
 -280514.22 133049.18 737298.92
 -389448.53 224435.68 661784.31
 -505655.24 335791.42 521111.21
 -599139.85 431461.55 308013.58
 -643153.82 473145.03 49869.200
 -629341.68 452937.53 -196917.85
 -571176.60 401851.35 -390221.46
 -491747.92 355983.58 -521017.92
 -422402.15 332516.67 -592460.20
 -251650.57 81064.791 755049.99
 -327972.29 136012.06 716892.53
 -435002.03 231638.60 630172.03
 -539737.89 344335.21 479704.35
 -614003.86 438343.31 266184.90
 -639035.07 480935.06 18320.657
 -612290.03 466479.49 -217939.92
 -545811.28 419243.83 -407829.20
 -460303.87 370639.34 -539209.44
 -387894.84 341295.57 -610782.22
 -296825.49 79398.296 738641.01
 -374989.37 134714.31 693711.05
 -478833.06 229616.84 598326.84
 -573172.21 339738.06 442777.22
 -632761.63 431143.39 231793.22
 -643822.37 474792.79 -8035.5926
 -605927.88 465054.53 -237856.45
 -530087.24 421284.99 -426059.24
 -436827.87 371818.28 -557613.29
 -360042.25 339560.74 -628544.42
 -341765.56 77612.743 719147.11
 -420879.39 129701.65 667860.78
 -521111.67 219048.31 566092.28
 -606926.77 323376.44 408739.00
 -655842.52 411623.77 201088.20
 -656292.64 456213.56 -33899.270
 -607921.04 449785.62 -261007.48
 -521517.74 408446.85 -448542.55
 -419109.28 359022.26 -579180.82
 -337012.77 325648.56 -648363.64
 -386380.33 77141.849 696246.63
 -465757.62 122218.79 638852.41
 -562299.79 201344.95 532239.76
 -641400.00 296929.91 374751.47
 -682501.04 381309.28 169692.56
 -673861.02 426410.50 -63917.292
 -614223.45 421836.98 -291175.41
 -515601.11 381879.71 -477831.96
 -403075.49 333125.27 -605440.09
 -315464.08 299962.05 -671196.83
 -429859.16 80066.514 669933.18
 -508781.91 114040.71 606741.86
 -601597.08 178558.29 496183.32
 -675510.04 262534.35 338765.26
 -710666.16 341867.94 134461.60
 -692999.13 386698.07 -101078.27
 -620182.86 382724.08 -329993.19
 -507736.96 343675.45 -513897.23
 -385140.43 296614.65 -635363.36
 -292802.69 265065.33 -695706.09
 -469343.75 88289.214 641811.08
 -546782.85 107186.48 574055.38
 -635853.32 154285.74 460311.27
 -705944.90 224703.11 301911.11
 -736418.42 297493.36 95841.623
 -709225.13 340942.93 -144075.13
 -621673.06 336820.20 -374265.63
 -495511.69 299112.30 -552268.05
 -364920.06 255067.76 -664660.66
 -269661.98 226262.27 -718392.51
 -498480.95 100173.19 617642.35
 -572787.35 103097.34 548894.88
 -658697.53 135566.06 433289.06
 -726610.50 194337.65 272525.35
 -753796.66 260477.27 62786.882
 -718258.61 301806.16 -181707.49
 -618282.89 297535.49 -411337.94
 -482627.66 261800.32 -581834.29
 -348497.75 220890.86 -685387.88
 -252559.34 193710.68 -733955.01
 -20579.844 84380.904 795271.23
 -53372.046 130418.47 787491.24
 -120363.16 230121.24 756674.91
 -227514.55 384862.85 663413.68
 -365666.25 557574.25 442039.75
 -479955.02 635390.27 76957.044
 -506108.02 553315.25 -278741.65
 -463256.78 418869.14 -499941.79
 -401195.79 325035.03 -611059.87
 -351231.51 290046.01 -657654.73
 -48537.260 86352.664 793843.41
 -86112.961 140741.77 782800.30
 -157811.36 252824.08 742411.99
 -261141.43 416447.76 631170.67
 -376929.52 583733.20 396458.93
 -458506.68 653794.47 48212.230
 -469222.63 582156.16 -284472.01
 -426150.79 453695.55 -502549.36
 -365318.15 353209.34 -617888.19
 -314609.68 306142.59 -668803.01
 -87445.214 89261.234 790180.84
 -130692.13 152362.20 774406.43
 -205877.67 275892.76 722147.89
 -301775.18 444279.70 592914.24
 -393200.51 602183.58 350383.07
 -444176.52 664994.82 22115.690
 -437421.45 604820.27 -287845.30
 -389070.25 485803.39 -502612.58
 -326613.57 381266.65 -622863.80
 -276087.22 324508.03 -677104.41
 -129129.36 91913.989 784141.20
 -177417.13 160634.08 763360.89
 -254624.62 290449.52 700575.03
 -342788.63 458627.45 558709.96
 -414917.48 607492.07 314319.68
 -443576.62 665758.51 2322.7896
 -421434.98 614447.95 -291283.84
 -364484.45 504064.45 -503060.74
 -297129.46 398858.83 -626598.53
 -245006.35 337131.56 -682872.02
 -170859.80 93459.905 775933.10
 -223523.34 163945.42 750439.35
 -302234.02 294502.28 679649.18
 -384390.14 459100.43 530538.42
 -443059.81 601040.15 287138.89
 -456014.17 657146.94 -14456.088
 -420395.08 611593.29 -298699.90
 -352787.94 507128.72 -508292.37
 -277813.47 402797.19 -632909.24
 -221994.84 339324.95 -689620.81
 -212731.51 93865.476 765463.64
 -269513.58 162237.83 735555.11
 -349940.94 288388.29 659070.20
 -428340.81 447029.37 506644.74
 -478084.16 584260.95 264716.22
 -479016.98 639905.34 -32617.331
 -430029.82 597230.06 -313672.78
 -349593.27 495580.76 -521712.81
 -264823.46 392395.93 -644898.42
 -203870.21 329058.08 -700112.65
 -255658.90 94080.332 752188.42
 -316611.97 156294.17 717864.19
 -399261.32 272904.28 637270.47
 -476046.03 423174.29 484049.27
 -520028.12 557343.96 242772.45
 -510049.70 613740.41 -56320.629
 -445493.74 571355.57 -339246.43
 -349189.25 469849.37 -545259.97
 -252903.30 368089.70 -663739.33
 -186318.49 306465.07 -715097.60
 -299696.65 95970.108 735507.76
 -364790.60 147595.28 696522.40
 -450057.37 249312.10 612610.67
 -527209.20 388038.80 459865.58
 -567886.32 519697.95 217759.42
 -546261.00 577676.75 -88817.191
 -461799.36 533437.36 -377075.50
 -346052.47 430678.16 -578587.95
 -237464.14 331797.40 -688128.82
 -165860.35 274029.44 -733074.49
 -342274.88 101608.68 715907.52
 -410658.71 138411.03 672459.52
 -498383.91 220986.25 585472.94
 -577659.00 344674.76 433023.53
 -617374.22 472655.57 188270.51
 -582765.77 532378.73 -130218.82
 -473692.99 485199.04 -424495.98
 -336579.88 382055.24 -617047.63
 -217108.01 288906.04 -713720.82
 -142143.84 237490.03 -750595.51
 -375542.60 110356.26 697702.84
 -444404.43 131702.02 652042.39
 -533640.96 196988.42 562514.79
 -615931.12 305705.17 408868.21
 -656626.24 428058.26 160025.36
 -610071.25 488604.57 -170524.63
 -477453.59 439489.95 -467853.25
 -323373.41 338670.68 -648638.43
 -197865.87 252838.99 -732749.30
 -121416.18 207747.91 -762954.07
 109690.18 97890.521 786374.92
 116206.18 144469.69 778218.89
 111949.99 256490.17 749453.13
 81447.706 447814.54 657896.96
 8651.6537 683889.64 414994.10
 -97057.218 793919.17 -16499.937
 -175869.92 660713.07 -415364.91
 -202705.67 459963.34 -622369.78
 -200415.39 323852.25 -703529.24
 -189967.82 267012.30 -729805.90
 78507.745 97034.348 790203.06
 80077.261 154875.22 780769.68
 69003.121 281948.09 745482.29
 35285.351 481885.74 637605.74
 -25580.200 701659.90 383430.62
 -98850.359 793673.42 -17638.498
 -151097.83 682322.37 -389365.67
 -169990.39 496162.44 -604091.14
 -167152.85 354667.13 -697331.45
 -156468.91 286864.69 -730223.34
 38051.286 98387.896 793014.45
 32950.170 167267.38 781623.89
 15254.135 308444.99 737989.84
 -18885.184 512637.05 613878.33
 -65609.884 714391.92 354033.24
 -110105.17 792187.22 -17783.577
 -136351.06 699632.04 -363212.61
 -141797.61 530389.51 -581876.63
 -133988.74 387170.83 -687128.64
 -122794.42 310856.08 -726835.63
 -3447.7748 100757.97 793622.04
 -14778.517 176935.28 780048.40
 -37863.559 326772.80 729236.51
 -71074.859 531197.28 593951.02
 -106126.23 719574.81 333090.56
 -130115.64 789133.62 -18386.298
 -135931.82 708618.54 -345517.44
 -126905.44 552246.13 -564729.33
 -111047.50 410234.62 -677772.83
 -97098.958 329817.51 -722351.86
 -43819.483 102531.72 792191.33
 -60706.853 181879.99 776681.63
 -88495.132 334903.09 721116.17
 -121083.21 537624.13 579913.05
 -147750.37 718347.52 319603.93
 -157100.15 784138.18 -21139.175
 -146467.43 709800.94 -338718.06
 -123154.46 560582.32 -557297.45
 -97487.777 420239.07 -673717.49
 -78836.898 338541.62 -720537.52
 -83772.458 102939.77 788914.18
 -106021.04 181562.61 771877.30
 -138563.87 332917.92 714118.84
 -171544.43 533070.42 571321.65
 -192245.88 711426.94 311308.91
 -189525.05 776732.39 -27695.688
 -163351.18 703641.16 -343810.27
 -125072.10 555816.75 -561626.84
 -88429.141 416213.61 -677455.92
 -64068.270 334772.94 -723755.72
 -124843.14 102306.60 783548.05
 -152813.94 176234.12 765238.16
 -190749.96 321022.15 707502.11
 -225453.03 517597.42 566801.41
 -241599.53 698441.36 306283.09
 -226362.94 766273.52 -39808.526
 -182160.68 689781.36 -361965.69
 -126585.77 537958.38 -578426.17
 -78034.340 398262.55 -689418.30
 -47973.551 318529.40 -732282.43
 -167697.99 102013.49 775545.38
 -202002.76 166880.80 755874.12
 -246343.97 299563.74 699697.23
 -284669.09 490306.17 564414.19
 -297537.56 677979.62 303009.95
 -266878.65 751837.44 -59297.934
 -198669.44 667126.60 -394300.08
 -122043.40 506814.55 -606831.46
 -61235.573 367734.82 -707828.58
 -26555.975 292192.54 -744256.88
 -210122.57 104028.11 764870.35
 -250718.88 155671.65 743576.75
 -302262.48 271018.28 689337.71
 -346897.27 451916.99 561634.51
 -359099.44 648872.47 300020.17
 -309147.24 732716.00 -86920.931
 -208707.78 635238.33 -439219.00
 -107946.37 464462.34 -642356.85
 -36333.657 329108.55 -728263.30
 1058.8280 261385.18 -756093.03
 -243749.01 108789.56 754155.99
 -288035.56 146685.07 731791.64
 -345896.38 244851.51 678530.35
 -398614.68 413084.47 557196.16
 -414189.60 616869.49 296511.39
 -345033.07 712241.34 -116895.07
 -209729.07 601224.93 -484295.68
 -88316.816 423258.06 -673091.94
 -10713.250 294883.64 -743591.87
 28045.047 236440.20 -763747.02
 243749.01 108789.56 754155.99
 288035.56 146685.07 731791.64
 345896.38 244851.51 678530.35
 398614.68 413084.47 557196.16
 414189.60 616869.49 296511.39
 345033.07 712241.34 -116895.07
 209729.07 601224.93 -484295.68
 88316.817 423258.06 -673091.94
 10713.250 294883.64 -743591.87
 -28045.047 236440.20 -763747.02
 210122.57 104028.11 764870.35
 250718.88 155671.65 743576.75
 302262.48 271018.28 689337.71
 346897.27 451916.99 561634.51
 359099.44 648872.47 300020.17
 309147.24 732716.00 -86920.930
 208707.78 635238.33 -439219.00
 107946.37 464462.34 -642356.85
 36333.658 329108.54 -728263.30
 -1058.8281 261385.18 -756093.03
 167697.99 102013.49 775545.38
 202002.76 166880.79 755874.12
 246343.97 299563.75 699697.23
 284669.09 490306.17 564414.19
 297537.56 677979.62 303009.95
 266878.65 751837.44 -59297.935
 198669.44 667126.60 -394300.08
 122043.40 506814.55 -606831.46
 61235.575 367734.82 -707828.58
 26555.975 292192.54 -744256.88
 124843.14 102306.60 783548.05
 152813.94 176234.12 765238.16
 190749.96 321022.15 707502.11
 225453.03 517597.42 566801.41
 241599.53 698441.36 306283.09
 226362.94 766273.52 -39808.528
 182160.68 689781.36 -361965.69
 126585.77 537958.38 -578426.17
 78034.339 398262.55 -689418.30
 47973.552 318529.40 -732282.43
 83772.457 102939.77 788914.18
 106021.04 181562.61 771877.29
 138563.86 332917.92 714118.84
 171544.43 533070.42 571321.65
 192245.88 711426.94 311308.91
 189525.05 776732.39 -27695.688
 163351.18 703641.16 -343810.28
 125072.10 555816.76 -561626.84
 88429.143 416213.61 -677455.92
 64068.270 334772.94 -723755.72
 43819.483 102531.72 792191.33
 60706.851 181879.99 776681.63
 88495.135 334903.09 721116.17
 121083.21 537624.13 579913.05
 147750.37 718347.52 319603.93
 157100.15 784138.18 -21139.174
 146467.43 709800.94 -338718.06
 123154.46 560582.32 -557297.45
 97487.775 420239.07 -673717.49
 78836.899 338541.62 -720537.52
 3447.7746 100757.97 793622.04
 14778.519 176935.28 780048.40
 37863.558 326772.80 729236.51
 71074.860 531197.28 593951.02
 106126.23 719574.81 333090.56
 130115.64 789133.62 -18386.299
 135931.82 708618.54 -345517.44
 126905.44 552246.13 -564729.33
 111047.50 410234.62 -677772.83
 97098.958 329817.51 -722351.86
 -38051.286 98387.896 793014.45
 -32950.171 167267.37 781623.89
 -15254.134 308444.99 737989.84
 18885.183 512637.05 613878.33
 65609.886 714391.92 354033.24
 110105.17 792187.22 -17783.576
 136351.06 699632.04 -363212.61
 141797.61 530389.51 -581876.63
 133988.74 387170.84 -687128.64
 122794.42 310856.08 -726835.63
 -78507.745 97034.347 790203.06
 -80077.260 154875.22 780769.68
 -69003.121 281948.09 745482.29
 -35285.350 481885.74 637605.74
 25580.199 701659.90 383430.62
 98850.362 793673.41 -17638.496
 151097.83 682322.37 -389365.67
 169990.39 496162.44 -604091.14
 167152.85 354667.13 -697331.45
 156468.91 286864.69 -730223.34
 -109690.18 97890.521 786374.92
 -116206.18 144469.69 778218.89
 -111949.99 256490.16 749453.13
 -81447.706 447814.54 657896.96
 -8651.6527 683889.64 414994.10
 97057.218 793919.17 -16499.937
 175869.92 660713.07 -415364.91
 202705.67 459963.34 -622369.78
 200415.39 323852.25 -703529.24
 189967.82 267012.30 -729805.90
 375542.60 110356.25 697702.84
 444404.43 131702.02 652042.39
 533640.96 196988.42 562514.79
 615931.12 305705.17 408868.21
 656626.24 428058.26 160025.35
 610071.24 488604.57 -170524.63
 477453.59 439489.94 -467853.25
 323373.41 338670.68 -648638.43
 197865.88 252838.99 -732749.30
 121416.18 207747.91 -762954.07
 342274.88 101608.68 715907.52
 410658.71 138411.03 672459.52
 498383.91 220986.25 585472.93
 577659.00 344674.77 433023.53
 617374.22 472655.57 188270.51
 582765.78 532378.73 -130218.83
 473692.99 485199.04 -424495.98
 336579.88 382055.23 -617047.63
 217108.01 288906.04 -713720.82
 142143.84 237490.03 -750595.51
 299696.65 95970.108 735507.76
 364790.60 147595.29 696522.40
 450057.37 249312.10 612610.67
 527209.20 388038.80 459865.58
 567886.32 519697.95 217759.42
 546261.00 577676.75 -88817.190
 461799.36 533437.36 -377075.50
 346052.47 430678.16 -578587.95
 237464.14 331797.40 -688128.82
 165860.35 274029.44 -733074.49
 255658.90 94080.332 752188.42
 316611.97 156294.16 717864.19
 399261.32 272904.28 637270.47
 476046.03 423174.29 484049.27
 520028.12 557343.96 242772.45
 510049.70 613740.41 -56320.630
 445493.75 571355.57 -339246.43
 349189.25 469849.37 -545259.98
 252903.30 368089.70 -663739.33
 186318.49 306465.07 -715097.60
 212731.51 93865.475 765463.64
 269513.58 162237.83 735555.11
 349940.95 288388.29 659070.20
 428340.81 447029.37 506644.74
 478084.16 584260.95 264716.22
 479016.98 639905.34 -32617.330
 430029.82 597230.06 -313672.78
 349593.27 495580.75 -521712.81
 264823.46 392395.93 -644898.42
 203870.21 329058.08 -700112.65
 170859.80 93459.904 775933.10
 223523.35 163945.42 750439.35
 302234.02 294502.28 679649.18
 384390.14 459100.43 530538.42
 443059.81 601040.15 287138.89
 456014.18 657146.93 -14456.089
 420395.08 611593.29 -298699.90
 352787.94 507128.72 -508292.37
 277813.47 402797.19 -632909.24
 221994.84 339324.95 -689620.81
 129129.36 91913.989 784141.20
 177417.13 160634.08 763360.89
 254624.62 290449.52 700575.03
 342788.63 458627.45 558709.96
 414917.49 607492.07 314319.68
 443576.62 665758.51 2322.7905
 421434.98 614447.95 -291283.84
 364484.45 504064.45 -503060.74
 297129.46 398858.83 -626598.53
 245006.35 337131.56 -682872.02
 87445.213 89261.234 790180.84
 130692.14 152362.20 774406.43
 205877.67 275892.76 722147.89
 301775.18 444279.69 592914.24
 393200.51 602183.58 350383.07
 444176.52 664994.82 22115.691
 437421.45 604820.27 -287845.29
 389070.24 485803.39 -502612.58
 326613.57 381266.65 -622863.80
 276087.22 324508.03 -677104.41
 48537.261 86352.663 793843.41
 86112.959 140741.77 782800.30
 157811.36 252824.08 742411.99
 261141.43 416447.76 631170.67
 376929.52 583733.20 396458.93
 458506.68 653794.47 48212.230
 469222.63 582156.16 -284472.01
 426150.79 453695.55 -502549.35
 365318.15 353209.34 -617888.19
 314609.68 306142.59 -668803.01
 20579.844 84380.904 795271.23
 53372.047 130418.47 787491.24
 120363.16 230121.24 756674.91
 227514.55 384862.85 663413.68
 365666.25 557574.25 442039.75
 479955.02 635390.27 76957.046
 506108.02 553315.25 -278741.65
 463256.78 418869.14 -499941.79
 401195.79 325035.03 -611059.87
 351231.51 290046.01 -657654.73
 498480.95 100173.19 617642.35
 572787.35 103097.34 548894.88
 658697.53 135566.06 433289.06
 726610.50 194337.65 272525.35
 753796.66 260477.27 62786.881
 718258.61 301806.16 -181707.49
 618282.89 297535.49 -411337.94
 482627.66 261800.32 -581834.29
 348497.75 220890.86 -685387.88
 252559.34 193710.68 -733955.01
 469343.75 88289.213 641811.08
 546782.85 107186.48 574055.38
 635853.32 154285.74 460311.27
 705944.90 224703.10 301911.11
 736418.42 297493.36 95841.621
 709225.13 340942.93 -144075.12
 621673.06 336820.20 -374265.63
 495511.69 299112.30 -552268.05
 364920.06 255067.75 -664660.66
 269661.98 226262.27 -718392.51
 429859.16 80066.513 669933.17
 508781.91 114040.71 606741.86
 601597.08 178558.29 496183.32
 675510.04 262534.36 338765.26
 710666.16 341867.94 134461.60
 692999.13 386698.06 -101078.27
 620182.86 382724.08 -329993.18
 507736.96 343675.44 -513897.24
 385140.43 296614.65 -635363.36
 292802.69 265065.33 -695706.09
 386380.33 77141.848 696246.63
 465757.62 122218.79 638852.41
 562299.79 201344.95 532239.76
 641400.00 296929.91 374751.48
 682501.04 381309.28 169692.56
 673861.02 426410.50 -63917.290
 614223.45 421836.97 -291175.41
 515601.11 381879.71 -477831.96
 403075.49 333125.27 -605440.09
 315464.08 299962.05 -671196.83
 341765.56 77612.743 719147.11
 420879.39 129701.65 667860.78
 521111.66 219048.31 566092.28
 606926.77 323376.44 408739.00
 655842.52 411623.77 201088.20
 656292.64 456213.56 -33899.272
 607921.04 449785.62 -261007.48
 521517.74 408446.85 -448542.55
 419109.28 359022.26 -579180.82
 337012.77 325648.56 -648363.64
 296825.49 79398.296 738641.01
 374989.37 134714.31 693711.05
 478833.06 229616.85 598326.83
 573172.21 339738.06 442777.23
 632761.63 431143.39 231793.22
 643822.37 474792.79 -8035.5909
 605927.88 465054.53 -237856.45
 530087.24 421284.99 -426059.24
 436827.87 371818.28 -557613.29
 360042.25 339560.73 -628544.42
 251650.57 81064.789 755049.99
 327972.29 136012.06 716892.53
 435002.03 231638.60 630172.04
 539737.89 344335.21 479704.35
 614003.86 438343.31 266184.90
 639035.07 480935.06 18320.657
 612290.03 466479.49 -217939.92
 545811.28 419243.83 -407829.20
 460303.87 370639.34 -539209.44
 387894.84 341295.57 -610782.22
 207243.65 81826.358 768345.31
 280514.21 133049.18 737298.92
 389448.53 224435.67 661784.31
 505655.24 335791.42 521111.21
 599139.85 431461.55 308013.59
 643153.82 473145.03 49869.201
 629341.68 452937.53 -196917.85
 571176.60 401851.35 -390221.46
 491747.92 355983.58 -521017.92
 422402.15 332516.67 -592460.20
 167505.25 81192.038 778042.32
 236516.39 126414.41 753710.42
 344916.65 209439.17 690773.29
 471305.51 315057.42 564455.44
 586704.83 410420.89 356836.30
 654519.55 451416.13 88473.941
 655269.24 425450.26 -172088.06
 603807.66 371421.27 -370759.42
 528638.83 330903.21 -501042.96
 461425.45 317341.31 -571297.69
 141256.91 78932.504 783464.19
 205952.56 119110.05 763803.86
 311440.34 193430.65 711048.17
 443350.40 291183.14 598876.28
 576502.81 383822.82 400405.49
 666582.24 424112.98 125683.31
 680114.44 394439.84 -147856.57
 632509.48 339684.79 -352910.75
 559811.56 304997.36 -483309.04
 495611.13 302881.09 -550120.58
 602554.01 79581.371 520187.92
 665577.92 68787.519 438490.95
 729606.45 80930.883 318000.98
 772679.43 113958.18 173147.41
 784558.36 156224.64 7876.7401
 757166.00 193022.49 -171586.63
 687672.52 214044.37 -348269.31
 583170.09 219020.87 -501938.75
 461818.17 213188.71 -617474.34
 360598.86 203566.12 -684492.00
 580626.62 67038.487 546240.40
 648598.34 71425.729 462837.50
 717017.63 94233.480 342061.07
 763197.64 133882.02 199009.98
 778717.23 179503.45 37121.176
 757239.54 217467.14 -138911.19
 695425.00 239040.44 -315029.74
 597385.97 244928.27 -472377.12
 478785.92 241114.08 -593824.93
 377705.64 235097.28 -664881.73
 547277.53 58545.813 580568.42
 620820.60 76738.453 498691.29
 695983.81 112896.69 377969.42
 747588.56 161293.06 234725.13
 768170.63 210789.11 74039.366
 753595.81 249448.45 -99341.931
 701071.28 270943.11 -274023.52
 612451.97 277334.82 -433575.81
 500590.60 275092.25 -560119.01
 402773.78 271106.09 -635826.05
 506860.78 56378.979 616371.28
 586151.31 84823.638 537802.56
 669369.70 132647.84 417550.90
 728099.88 189066.94 272257.71
 754655.01 241691.64 109913.48
 746698.25 280143.12 -62940.864
 702759.18 300644.78 -236097.97
 623982.37 306904.04 -395545.08
 521020.72 305896.55 -524370.77
 428727.86 303741.59 -603268.98
 462137.79 59376.572 650309.99
 546800.04 94615.926 576244.35
 638786.74 150891.42 457365.58
 706262.93 213243.66 309386.18
 740144.16 267678.87 143299.15
 738987.49 304814.71 -31392.421
 702831.35 323156.69 -203955.49
 633323.92 328408.45 -362006.51
 539830.38 328414.02 -490639.78
 454186.80 328349.76 -570877.21
 414521.41 65770.260 681062.61
 503661.80 104648.52 612677.30
 604650.52 165704.35 496930.39
 682630.66 231330.18 347133.60
 726010.94 286013.75 176363.99
 732935.12 320625.23 -2362.3995
 704585.67 335501.75 -176061.39
 643831.78 338779.05 -332730.22
 559627.49 339686.11 -459815.64
 480899.29 342167.21 -540053.21
 365013.03 74011.430 708016.80
 457158.91 113616.08 646604.30
 566664.34 175644.00 536694.25
 656808.22 241572.89 387615.15
 712650.19 294805.07 212649.19
 730161.55 325687.21 28141.666
 710658.21 335835.23 -148928.19
 658543.35 336342.73 -305277.30
 583189.86 338433.11 -430525.97
 511096.47 344407.30 -510062.75
 315780.11 82727.594 730369.13
 408768.59 120556.34 677033.54
 525005.40 179915.08 576194.32
 628007.96 243011.27 431916.11
 699371.19 293000.11 255011.51
 730811.21 319116.78 63870.593
 721898.36 323581.75 -118985.74
 678496.87 320930.22 -276849.77
 611343.77 325058.52 -400744.01
 545208.71 336331.38 -479195.85
 272160.68 89918.925 746888.98
 363321.55 124669.82 701751.30
 482762.32 178764.12 612359.31
 596966.13 236362.32 477246.58
 685132.75 281554.90 302191.92
 733144.02 302417.31 105088.65
 736251.65 301033.38 -85512.669
 701191.78 295331.29 -247203.40
 641188.62 302382.29 -370731.85
 580081.01 321481.73 -447387.44
 244422.28 92159.628 756151.01
 331706.22 125194.78 717145.21
 450310.09 174230.09 637859.47
 570928.40 226173.94 512724.20
 672074.06 266721.45 342309.99
 734584.27 283367.10 141735.79
 748149.77 277661.94 -56353.904
 719323.13 269579.60 -223385.48
 664469.36 278615.58 -347640.36
 607700.59 306298.05 -420572.82
 672103.02 55823.432 430303.71
 717784.65 40098.049 350966.29
 761466.37 46337.480 240877.17
 788063.77 72630.504 116962.84
 792234.19 110018.55 -16152.562
 770149.77 149428.63 -156653.82
 718530.35 184366.98 -299537.89
 636527.96 211550.05 -435980.20