# OOMMF OVF 2.0
#
# Segment count: 1
#
# Begin: Segment
# Begin: Header
#
# Title: Oxs_MinDriver::Magnetization
# Desc: Oxs vector field output
# Desc:  MIF source file: /home/ryan/Git/joommf/tools/omfvis/cube_example.mif
# Desc:  Iteration: 5089, State id: 10830
# Desc:  Stage: 25, Stage iteration: 178
# Desc:  Stage simulation time: 0 s
# Desc:  Total simulation time: -2 s
# meshunit: m
# meshtype: rectangular
# xbase: 2.5000000000000001e-09
# ybase: 2.5000000000000001e-09
# zbase: 2.5000000000000001e-09
# xnodes: 10
# ynodes: 10
# znodes: 10
# xstepsize: 5.0000000000000001e-09
# ystepsize: 5.0000000000000001e-09
# zstepsize: 5.0000000000000001e-09
# xmin: 0
# ymin: 0
# zmin: 0
# xmax: 4.9999999999999998e-08
# ymax: 4.9999999999999998e-08
# zmax: 4.9999999999999998e-08
# valuedim: 3
# valuelabels: Magnetization_x Magnetization_y Magnetization_z
# valueunits: A/m A/m A/m
#
# End: Header
#
# Begin: Data Text
 282106.19 282106.31 693420.60
 250219.52 288382.97 703011.70
 195448.07 295007.99 717474.97
 124335.00 300015.46 731116.63
 42680.952 302678.81 739299.58
 -42681.029 302678.77 739299.60
 -124335.07 300015.35 731116.66
 -195448.13 295007.84 717475.02
 -250219.56 288382.79 703011.76
 -282106.22 282106.12 693420.67
 288382.86 250219.67 703011.69
 258755.26 258755.39 711400.99
 203903.88 266759.17 726128.61
 130443.56 272682.60 740694.72
 44901.464 275835.26 749599.07
 -44901.487 275835.22 749599.09
 -130443.59 272682.48 740694.77
 -203903.90 266758.99 726128.67
 -258755.28 258755.17 711401.06
 -288382.87 250219.44 703011.77
 295007.92 195448.25 717474.95
 266759.08 203904.04 726128.59
 211863.65 211863.75 741773.24
 136320.46 217736.39 757632.89
 47066.455 220863.30 767466.06
 -47066.380 220863.25 767466.08
 -136320.39 217736.24 757632.94
 -211863.60 211863.54 741773.32
 -266759.04 203903.79 726128.68
 -295007.89 195447.98 717475.04
 300015.44 124335.21 731116.61
 272682.58 130443.74 740694.70
 217736.37 136320.58 757632.88
 140687.80 140687.82 774863.78
 48684.991 143019.49 785604.99
 -48684.780 143019.44 785605.01
 -140687.61 140687.66 774863.84
 -217736.21 136320.34 757632.96
 -272682.46 130443.46 740694.80
 -300015.34 124334.91 731116.70
 302678.86 42681.176 739299.55
 275835.33 44901.654 749599.04
 220863.38 47066.575 767466.03
 143019.60 48685.007 785604.97
 49551.238 49551.121 796924.94
 -49550.868 49551.064 796924.97
 -143019.26 48684.840 785605.04
 -220863.10 47066.327 767466.12
 -275835.10 44901.358 749599.14
 -302678.68 42680.859 739299.64
 302678.90 -42680.810 739299.56
 275835.38 -44901.302 749599.04
 220863.44 -47066.261 767466.03
 143019.67 -48684.766 785604.97
 49551.308 -49550.985 796924.94
 -49550.796 -49551.040 796924.97
 -143019.19 -48684.930 785605.05
 -220863.04 -47066.502 767466.13
 -275835.05 -44901.586 749599.14
 -302678.64 -42681.112 739299.64
 300015.55 -124334.87 731116.62
 272682.72 -130443.42 740694.71
 217736.53 -136320.28 757632.88
 140687.99 -140687.60 774863.79
 48685.198 -143019.37 785605.00
 -48684.573 -143019.42 785605.03
 -140687.42 -140687.75 774863.86
 -217736.04 -136320.50 757632.98
 -272682.31 -130443.67 740694.81
 -300015.22 -124335.14 731116.71
 295008.07 -195447.97 717474.97
 266759.28 -203903.76 726128.60
 211863.89 -211863.50 741773.25
 136320.74 -217736.19 757632.90
 47066.757 -220863.19 767466.07
 -47066.074 -220863.23 767466.10
 -136320.11 -217736.32 757632.97
 -211863.34 -211863.68 741773.35
 -266758.83 -203903.97 726128.71
 -295007.71 -195448.18 717475.06
 288383.04 -250219.44 703011.70
 258755.48 -258755.16 711400.99
 203904.16 -266758.97 726128.60
 130443.89 -272682.44 740694.72
 44901.821 -275835.17 749599.08
 -44901.127 -275835.21 749599.11
 -130443.25 -272682.55 740694.80
 -203903.61 -266759.11 726128.71
 -258755.03 -258755.32 711401.10
 -288382.67 -250219.59 703011.80
 282106.37 -282106.13 693420.60
 250219.75 -288382.79 703011.69
 195448.36 -295007.83 717474.96
 124335.35 -300015.33 731116.63
 42681.329 -302678.74 739299.59
 -42680.647 -302678.77 739299.62
 -124334.71 -300015.41 731116.70
 -195447.82 -295007.93 717475.07
 -250219.30 -288382.90 703011.81
 -282106.01 -282106.23 693420.70
 228919.57 228919.70 731567.90
 205270.12 225583.66 739578.39
 160904.83 224408.62 750833.14
 102230.68 224013.36 761161.55
 35029.140 223857.07 767242.45
 -35029.251 223857.03 767242.45
 -102230.78 224013.25 761161.57
 -160904.91 224408.45 750833.18
 -205270.18 225583.47 739578.43
 -228919.60 228919.49 731567.96
 225583.55 205270.28 739578.38
 205049.13 205049.26 745593.49
 162235.21 205455.07 755954.99
 103581.08 205928.03 766070.89
 35564.902 206188.52 772153.76
 -35564.965 206188.48 772153.77
 -103581.14 205927.90 766070.92
 -162235.25 205454.89 755955.03
 -205049.15 205049.04 745593.55
 -225583.56 205270.04 739578.44
 224408.54 160905.03 750833.12
 205454.98 162235.38 755954.98
 163703.60 163703.71 765769.04
 105006.88 164749.86 775777.70
 36134.731 165266.54 781908.72
 -36134.704 165266.49 781908.74
 -105006.86 164749.72 775777.73
 -163703.57 163703.50 765769.09
 -205454.95 162235.11 755955.04
 -224408.51 160904.74 750833.19
 224013.34 102230.91 761161.53
 205928.00 103581.27 766070.87
 164749.83 105007.01 775777.69
 105988.32 105988.36 785832.64
 36526.724 106464.35 792042.39
 -36526.581 106464.30 792042.40
 -105988.19 105988.21 785832.68
 -164749.71 105006.78 775777.74
 -205927.89 103580.98 766070.94
 -224013.25 102230.59 761161.59
 223857.11 35029.376 767242.42
 206188.58 35565.101 772153.74
 165266.60 36134.861 781908.70
 106464.43 36526.756 792042.37
 36716.352 36716.273 798313.11
 -36716.077 36716.219 798313.13
 -106464.17 36526.603 792042.42
 -165266.38 36134.629 781908.76
 -206188.38 35564.812 772153.80
 -223856.95 35029.060 767242.49
 223857.15 -35029.023 767242.43
 206188.62 -35564.771 772153.74
 165266.66 -36134.580 781908.71
 106464.48 -36526.549 792042.38
 36716.418 -36716.159 798313.11
 -36716.015 -36716.211 798313.13
 -106464.10 -36526.693 792042.42
 -165266.32 -36134.801 781908.77
 -206188.33 -35565.041 772153.80
 -223856.90 -35029.319 767242.49
 224013.44 -102230.58 761161.54
 205928.12 -103580.96 766070.88
 164749.98 -105006.75 775777.69
 105988.49 -105988.16 785832.65
 36526.901 -106464.24 792042.39
 -36526.396 -106464.29 792042.41
 -105988.01 -105988.29 785832.69
 -164749.55 -105006.94 775777.76
 -205927.76 -103581.20 766070.95
 -224013.13 -102230.83 761161.60
 224408.68 -160904.74 750833.14
 205455.16 -162235.11 755954.99
 163703.82 -163703.48 765769.05
 105007.13 -164749.69 775777.70
 36135.004 -165266.44 781908.73
 -36134.431 -165266.49 781908.75
 -105006.59 -164749.80 775777.75
 -163703.34 -163703.64 765769.11
 -205454.75 -162235.30 755955.06
 -224408.34 -160904.94 750833.20
 225583.72 -205270.06 739578.39
 205049.34 -205049.05 745593.49
 162235.47 -205454.88 755954.99
 103581.39 -205927.88 766070.89
 35565.233 -206188.44 772153.77
 -35564.626 -206188.47 772153.79
 -103580.81 -205927.96 766070.94
 -162234.97 -205455.00 755955.06
 -205048.92 -205049.18 745593.57
 -225583.36 -205270.19 739578.46
 228919.75 -228919.52 731567.91
 205270.35 -225583.49 739578.38
 160905.11 -224408.46 750833.13
 102231.01 -224013.24 761161.54
 35029.501 -223857.00 767242.45
 -35028.884 -223857.02 767242.47
 -102230.43 -224013.30 761161.60
 -160904.60 -224408.54 750833.21
 -205269.92 -225583.58 739578.47
 -228919.39 -228919.61 731567.99
 161353.79 161353.92 766765.85
 144125.46 153416.79 771810.30
 112555.81 147124.03 778258.13
 71225.304 142952.19 783895.16
 24339.395 140845.00 787127.87
 -24339.548 140844.96 787127.87
 -71225.441 142952.08 783895.17
 -112555.91 147123.87 778258.14
 -144125.53 153416.60 771810.33
 -161353.83 161353.71 766765.89
 153416.68 144125.63 771810.29
 139138.61 139138.75 775423.02
 109824.14 134462.59 780934.36
 69868.244 131182.50 786072.25
 23925.686 129496.37 789086.97
 -23925.797 129496.32 789086.98
 -69868.342 131182.37 786072.26
 -109824.21 134462.40 780934.38
 -139138.65 139138.52 775423.05
 -153416.70 144125.38 771810.33
 147123.94 112556.01 778258.11
 134462.48 109824.31 780934.35
 106958.85 106958.98 785569.59
 68380.748 104785.78 790154.42
 23468.426 103624.82 792913.07
 -23468.461 103624.77 792913.07
 -68380.777 104785.64 790154.44
 -106958.87 106958.77 785569.62
 -134462.49 109824.06 780934.39
 -147123.94 112555.73 778258.15
 142952.15 71225.539 783895.15
 131182.45 69868.443 786072.24
 104785.72 68380.888 790154.42
 67185.245 67185.302 794337.63
 23090.460 66523.091 796894.92
 -23090.396 66523.041 796894.92
 -67185.183 67185.158 794337.65
 -104785.66 68380.671 790154.45
 -131182.40 69868.168 786072.27
 -142952.09 71225.231 783895.19
 140845.04 24339.641 787127.85
 129496.40 23925.897 789086.96
 103624.85 23468.569 792913.06
 66523.127 23090.519 796894.91
 22876.880 22876.838 799345.54
 -22876.708 22876.789 799345.55
 -66522.962 23090.381 796894.93
 -103624.70 23468.351 792913.08
 -129496.26 23925.623 789086.99
 -140844.91 24339.333 787127.89
 140845.07 -24339.308 787127.86
 129496.44 -23925.593 789086.96
 103624.90 -23468.321 792913.06
 66523.182 -23090.342 796894.91
 22876.930 -22876.749 799345.55
 -22876.650 -22876.793 799345.55
 -66522.910 -23090.473 796894.93
 -103624.65 -23468.521 792913.09
 -129496.21 -23925.850 789086.99
 -140844.87 -24339.594 787127.89
 142952.25 -71225.227 783895.16
 131182.56 -69868.161 786072.25
 104785.86 -68380.651 790154.42
 67185.386 -67185.133 794337.64
 23090.617 -66523.003 796894.92
 -23090.243 -66523.046 796894.93
 -67185.027 -67185.248 794337.66
 -104785.52 -68380.828 790154.45
 -131182.27 -69868.378 786072.28
 -142951.98 -71225.470 783895.19
 147124.07 -112555.74 778258.13
 134462.64 -109824.06 780934.36
 106959.04 -106958.77 785569.59
 68380.971 -104785.62 790154.43
 23468.661 -103624.74 792913.07
 -23468.215 -103624.77 792913.08
 -68380.543 -104785.72 790154.45
 -106958.65 -106958.91 785569.63
 -134462.30 -109824.23 780934.39
 -147123.77 -112555.93 778258.16
 153416.83 -144125.41 771810.30
 139138.79 -139138.55 775423.02
 109824.37 -134462.40 780934.36
 69868.516 -131182.37 786072.25
 23925.987 -129496.30 789086.98
 -23925.492 -129496.33 789086.99
 -69868.047 -131182.44 786072.28
 -109823.95 -134462.51 780934.40
 -139138.43 -139138.66 775423.07
 -153416.51 -144125.53 771810.34
 161353.95 -161353.75 766765.85
 144125.66 -153416.63 771810.29
 112556.06 -147123.88 778258.12
 71225.608 -142952.07 783895.16
 24339.727 -140844.94 787127.87
 -24339.207 -140844.96 787127.88
 -71225.115 -142952.13 783895.19
 -112555.62 -147123.95 778258.17
 -144125.29 -153416.70 771810.35
 -161353.62 -161353.82 766765.91
 93536.887 93537.011 788987.76
 82937.920 86614.058 790961.00
 64361.642 80490.228 793334.04
 40542.372 76264.729 795323.84
 13820.132 74121.114 796438.99
 -13820.325 74121.078 796438.99
 -40542.544 76264.622 795323.84
 -64361.776 80490.069 793334.05
 -82938.005 86613.872 790961.01
 -93536.933 93536.814 788987.77
 86613.939 82938.081 790961.00
 78084.741 78084.890 792341.80
 61335.901 73185.401 794280.68
 38880.948 69659.248 796012.48
 13287.438 67848.014 797006.96
 -13287.588 67847.971 797006.96
 -38881.086 69659.130 796012.48
 -61336.012 73185.224 794280.69
 -78084.814 78084.676 792341.81
 -86613.983 82937.851 790961.02
 80490.130 64361.850 793334.04
 73185.284 61336.085 794280.68
 58016.459 58016.601 795781.48
 36997.146 55503.261 797214.27
 12678.269 54181.503 798062.42
 -12678.351 54181.460 798062.42
 -36997.223 55503.130 797214.28
 -58016.524 58016.403 795781.49
 -73185.327 61335.840 794280.70
 -80490.155 64361.580 793334.05
 76264.675 40542.614 795323.83
 69659.183 38881.159 796012.47
 55503.185 36997.298 797214.27
 35523.604 35523.684 798421.03
 12195.088 34733.448 799152.59
 -12195.089 34733.403 799152.60
 -35523.604 35523.554 798421.04
 -55503.184 36997.093 797214.28
 -69659.172 38880.899 796012.48
 -76264.657 40542.320 795323.85
 74121.123 13820.391 796438.98
 67848.020 13287.656 797006.95
 54181.509 12678.425 798062.42
 34733.455 12195.167 799152.59
 11933.439 11933.432 799821.97
 -11933.347 11933.391 799821.97
 -34733.366 12195.040 799152.60
 -54181.423 12678.228 798062.43
 -67847.938 13287.397 797006.97
 -74121.043 13820.095 796439.00
 74121.151 -13820.072 796438.99
 67848.053 -13287.375 797006.96
 54181.549 -12678.199 798062.42
 34733.495 -12195.011 799152.59
 11933.484 -11933.358 799821.97
 -11933.306 -11933.395 799821.97
 -34733.318 -12195.128 799152.60
 -54181.380 -12678.386 798062.43
 -67847.896 -13287.614 797006.97
 -74121.007 -13820.349 796439.00
 76264.755 -40542.317 795323.84
 69659.280 -38880.888 796012.48
 55503.298 -36997.081 797214.27
 35523.730 -35523.530 798421.03
 12195.216 -34733.373 799152.59
 -12194.952 -34733.410 799152.60
 -35523.470 -35523.638 798421.04
 -55503.051 -36997.245 797214.28
 -69659.055 -38881.101 796012.48
 -76264.553 -40542.553 795323.85
 80490.243 -64361.590 793334.04
 73185.422 -61335.848 794280.69
 58016.631 -58016.397 795781.48
 36997.336 -55503.117 797214.28
 12678.476 -54181.432 798062.42
 -12678.143 -54181.464 798062.42
 -36997.012 -55503.211 797214.28
 -58016.325 -58016.537 795781.49
 -73185.152 -61336.014 794280.70
 -80490.001 -64361.771 793334.05
 86614.063 -82937.874 790961.01
 78084.902 -78084.690 792341.80
 61336.107 -73185.230 794280.68
 38881.194 -69659.119 796012.47
 13287.701 -67847.948 797006.96
 -13287.314 -67847.974 797006.96
 -38880.819 -69659.192 796012.49
 -61335.767 -73185.332 794280.70
 -78084.605 -78084.805 792341.82
 -86613.805 -82937.988 790961.02
 93537.010 -93536.842 788987.76
 82938.087 -86613.893 790961.00
 64361.868 -80490.078 793334.04
 40542.644 -76264.617 795323.83
 13820.436 -74121.056 796438.99
 -13820.013 -74121.075 796439.00
 -40542.243 -76264.673 795323.85
 -64361.506 -80490.154 793334.06
 -82937.781 -86613.968 790961.03
 -93536.746 -93536.908 788987.78
 30367.557 30367.689 798846.43
 26798.900 27730.850 799069.97
 20708.767 25315.271 799331.15
 13007.783 23628.061 799545.19
 4427.7682 22771.304 799663.59
 -4427.9958 22771.272 799663.59
 -13007.991 23627.966 799545.19
 -20708.934 25315.125 799331.15
 -26799.016 27730.675 799069.97
 -30367.628 30367.502 798846.43
 27730.723 26799.075 799069.97
 24901.600 24901.762 799224.51
 19496.096 22939.203 799433.36
 12332.113 21514.775 799615.55
 4209.8976 20783.206 799718.91
 -4210.0888 20783.169 799718.91
 -12332.289 21514.666 799615.55
 -19496.240 22939.035 799433.36
 -24901.705 24901.556 799224.51
 -27730.792 26798.851 799069.97
 25315.163 20708.990 799331.15
 22939.071 19496.295 799433.36
 18142.360 18142.517 799588.46
 11553.839 17114.930 799733.45
 3956.6775 16576.247 799818.46
 -3956.8018 16576.206 799818.46
 -11553.956 17114.811 799733.45
 -18142.462 18142.329 799588.46
 -22939.148 19496.059 799433.36
 -25315.216 20708.727 799331.15
 23627.994 13008.043 799545.19
 21514.693 12332.342 799615.55
 17114.836 11554.009 799733.45
 10946.136 10946.235 799850.21
 3756.5612 10622.283 799920.66
 -3756.6069 10622.241 799920.66
 -10946.181 10946.114 799850.21
 -17114.875 11553.815 799733.45
 -21514.721 12332.085 799615.56
 -23628.008 13007.754 799545.19
 22771.289 4428.0452 799663.59
 20783.188 4210.1388 799718.91
 16576.223 3956.8542 799818.46
 10622.258 3756.6610 799920.66
 3649.0312 3649.0560 799983.36
 -3649.0018 3649.0160 799983.36
 -10622.228 3756.5454 799920.66
 -16576.193 3956.6595 799818.46
 -20783.154 4209.8826 799718.91
 -22771.253 4427.7508 799663.59
 22771.310 -4427.7208 799663.59
 20783.214 -4209.8480 799718.91
 16576.258 -3956.6269 799818.46
 10622.295 -3756.5081 799920.66
 3649.0702 -3648.9758 799983.36
 -3648.9603 -3649.0158 799983.36
 -10622.187 -3756.6183 799920.66
 -16576.152 -3956.8085 799818.46
 -20783.118 -4210.0956 799718.91
 -22771.222 -4427.9987 799663.59
 23628.055 -13007.735 799545.19
 21514.773 -12332.065 799615.55
 17114.931 -11553.788 799733.45
 10946.241 -10946.083 799850.21
 3756.6733 -10622.204 799920.66
 -3756.4917 -10622.239 799920.66
 -10946.061 -10946.186 799850.21
 -17114.759 -11553.956 799733.45
 -21514.616 -12332.282 799615.56
 -23627.916 -13007.982 799545.19
 25315.255 -20708.719 799331.15
 22939.190 -19496.046 799433.36
 18142.510 -18142.311 799588.46
 11554.010 -17114.784 799733.45
 3956.8621 -16576.170 799818.46
 -3956.6077 -16576.204 799818.46
 -11553.763 -17114.875 799733.45
 -18142.279 -18142.455 799588.46
 -22938.984 -19496.225 799433.36
 -25315.076 -20708.914 799331.15
 27730.823 -26798.850 799069.97
 24901.740 -24901.552 799224.51
 19496.281 -22939.021 799433.36
 12332.337 -21514.644 799615.55
 4210.1471 -20783.136 799718.91
 -4209.8312 -20783.161 799718.91
 -12332.035 -21514.719 799615.56
 -19496.008 -22939.134 799433.36
 -24901.507 -24901.682 799224.51
 -27730.624 -26798.985 799069.98
 30367.654 -30367.505 798846.43
 26799.046 -27730.673 799069.97
 20708.971 -25315.115 799331.15
 13008.036 -23627.945 799545.19
 4428.0503 -22771.240 799663.59
 -4427.7015 -22771.259 799663.60
 -13007.705 -23628.002 799545.19
 -20708.677 -25315.199 799331.15
 -26798.799 -27730.764 799069.98
 -30367.449 -30367.592 798846.44
 -30367.596 -30367.447 798846.44
 -26798.991 -27730.623 799069.98
 -20708.920 -25315.075 799331.15
 -13007.989 -23627.917 799545.19
 -4428.0065 -22771.223 799663.59
 4427.7442 -22771.256 799663.59
 13007.748 -23628.011 799545.19
 20708.721 -25315.220 799331.15
 26798.846 -27730.796 799069.97
 30367.498 -30367.631 798846.43
 -27730.769 -26798.796 799069.98
 -24901.686 -24901.504 799224.51
 -19496.231 -22938.983 799433.36
 -12332.289 -21514.616 799615.56
 -4210.1018 -20783.120 799718.91
 4209.8747 -20783.156 799718.91
 12332.079 -21514.726 799615.56
 19496.054 -22939.152 799433.36
 24901.552 -24901.709 799224.51
 27730.671 -26799.020 799069.97
 -25315.204 -20708.674 799331.15
 -22939.140 -19496.005 799433.36
 -18142.460 -18142.277 799588.46
 -11553.963 -17114.759 799733.45
 -3956.8157 -16576.154 799818.46
 3956.6533 -16576.198 799818.46
 11553.809 -17114.879 799733.45
 18142.323 -18142.467 799588.46
 22939.030 -19496.246 799433.36
 25315.120 -20708.939 799331.15
 -23628.008 -13007.701 799545.19
 -21514.724 -12332.033 799615.56
 -17114.883 -11553.761 799733.45
 -10946.193 -10946.061 799850.21
 -3756.6260 -10622.190 799920.66
 3756.5392 -10622.231 799920.66
 10946.107 -10946.186 799850.21
 17114.806 -11553.962 799733.45
 21514.660 -12332.293 799615.55
 23627.961 -13007.997 799545.19
 -22771.266 -4427.6976 799663.59
 -20783.169 -4209.8261 799718.91
 -16576.210 -3956.6067 799818.46
 -10622.248 -3756.4914 799920.66
 -3649.0220 -3648.9621 799983.36
 3649.0071 -3649.0065 799983.36
 10622.235 -3756.6132 799920.66
 16576.197 -3956.8064 799818.46
 20783.163 -4210.0973 799718.91
 22771.265 -4428.0013 799663.59
 -22771.248 4428.0563 799663.59
 -20783.144 4210.1506 799718.91
 -16576.179 3956.8659 799818.46
 -10622.212 3756.6735 799920.66
 -3648.9853 3649.0676 799983.36
 3649.0487 3649.0270 799983.36
 10622.274 3756.5559 799920.66
 16576.240 3956.6686 799818.46
 20783.197 4209.8921 799718.91
 22771.296 4427.7600 799663.59
 -23627.954 13008.042 799545.19
 -21514.654 12332.343 799615.55
 -17114.793 11554.014 799733.45
 -10946.093 10946.242 799850.21
 -3756.5173 10622.294 799920.66
 3756.6515 10622.253 799920.66
 10946.226 10946.129 799850.21
 17114.919 11553.832 799733.45
 21514.766 12332.104 799615.55
 23628.051 13007.775 799545.19
 -25315.126 20708.979 799331.15
 -22939.031 19496.288 799433.36
 -18142.322 18142.514 799588.46
 -11553.798 17114.933 799733.45
 -3956.6362 16576.255 799818.46
 3956.8429 16576.219 799818.46
 11553.999 17114.829 799733.45
 18142.506 18142.352 799588.46
 22939.191 19496.087 799433.36
 25315.260 20708.758 799331.15
 -27730.684 26799.056 799069.97
 -24901.564 24901.747 799224.51
 -19496.057 22939.196 799433.36
 -12332.076 21514.774 799615.55
 -4209.8598 20783.214 799718.91
 4210.1290 20783.183 799718.91
 12332.330 21514.687 799615.55
 19496.283 22939.062 799433.36
 24901.750 24901.591 799224.51
 27730.837 26798.889 799069.97
 -30367.518 30367.665 798846.43
 -26798.862 27730.832 799069.97
 -20708.731 25315.260 799331.15
 -13007.747 23628.058 799545.19
 -4427.7313 22771.309 799663.59
 4428.0335 22771.286 799663.59
 13008.031 23627.987 799545.19
 20708.977 25315.154 799331.15
 26799.061 27730.712 799069.97
 30367.675 30367.545 798846.43
 -93536.927 -93536.753 788987.78
 -82938.007 -86613.813 790961.02
 -64361.793 -80490.009 793334.05
 -40542.575 -76264.562 795323.84
 -13820.372 -74121.018 796438.99
 13820.073 -74121.054 796439.00
 40542.301 -76264.669 795323.85
 64361.564 -80490.166 793334.05
 82937.838 -86613.994 790961.02
 93536.803 -93536.944 788987.77
 -86613.986 -82937.787 790961.02
 -78084.826 -78084.612 792341.82
 -61336.034 -73185.160 794280.70
 -38881.124 -69659.065 796012.48
 -13287.636 -67847.907 797006.96
 13287.376 -67847.951 797006.96
 38880.880 -69659.186 796012.48
 61335.824 -73185.340 794280.70
 78084.663 -78084.827 792341.81
 86613.861 -82938.017 790961.01
 -80490.172 -64361.511 793334.06
 -73185.350 -61335.772 794280.70
 -58016.560 -58016.332 795781.49
 -36997.266 -55503.061 797214.28
 -12678.409 -54181.392 798062.43
 12678.208 -54181.437 798062.43
 36997.074 -55503.199 797214.28
 58016.387 -58016.541 795781.49
 73185.209 -61336.026 794280.69
 80490.057 -64361.791 793334.05
 -76264.690 -40542.246 795323.85
 -69659.213 -38880.822 796012.48
 -55503.230 -36997.020 797214.28
 -35523.661 -35523.479 798421.04
 -12195.148 -34733.331 799152.60
 12195.018 -34733.381 799152.60
 35523.535 -35523.622 798421.04
 55503.111 -36997.239 797214.28
 69659.114 -38881.106 796012.48
 76264.607 -40542.561 795323.84
 -74121.093 -13820.013 796438.99
 -67847.992 -13287.317 797006.96
 -54181.485 -12678.146 798062.42
 -34733.429 -12194.962 799152.60
 -11933.418 -11933.318 799821.97
 11933.371 -11933.364 799821.97
 34733.381 -12195.106 799152.60
 54181.442 -12678.374 798062.42
 67847.953 -13287.606 797006.96
 74121.061 -13820.346 796438.99
 -74121.073 13820.437 796438.99
 -67847.967 13287.702 797006.96
 -54181.451 12678.471 798062.42
 -34733.395 12195.209 799152.59
 -11933.378 11933.471 799821.97
 11933.410 11933.424 799821.97
 34733.428 12195.066 799152.59
 54181.482 12678.251 798062.42
 67847.995 13287.414 797006.96
 74121.096 13820.111 796438.99
 -76264.634 40542.648 795323.83
 -69659.137 38881.195 796012.47
 -55503.136 36997.334 797214.27
 -35523.550 35523.723 798421.03
 -12195.031 34733.484 799152.59
 12195.146 34733.437 799152.59
 35523.663 35523.586 798421.03
 55503.241 36997.121 797214.28
 69659.227 38880.927 796012.48
 76264.709 40542.347 795323.84
 -80490.094 64361.874 793334.04
 -73185.247 61336.110 794280.68
 -58016.415 58016.631 795781.48
 -36997.099 55503.292 797214.27
 -12678.220 54181.538 798062.42
 12678.405 54181.494 798062.42
 36997.276 55503.164 797214.28
 58016.578 58016.438 795781.48
 73185.379 61335.875 794280.69
 80490.205 64361.617 793334.05
 -86613.910 82938.094 790961.00
 -78084.707 78084.908 792341.80
 -61335.865 73185.422 794280.68
 -38880.907 69659.276 796012.47
 -13287.393 67848.043 797006.96
 13287.635 67848.005 797006.96
 38881.138 69659.165 796012.47
 61336.063 73185.261 794280.68
 78084.866 78084.717 792341.80
 86614.034 82937.894 790961.01
 -93536.859 93537.018 788987.76
 -82937.891 86614.069 790961.00
 -64361.607 80490.246 793334.04
 -40542.334 76264.751 795323.84
 -13820.090 74121.142 796438.99
 13820.371 74121.109 796438.99
 40542.593 76264.657 795323.83
 64361.827 80490.108 793334.04
 82938.057 86613.915 790961.00
 93536.986 93536.861 788987.76
 -161353.85 -161353.64 766765.90
 -144125.56 -153416.52 771810.33
 -112555.96 -147123.79 778258.15
 -71225.509 -142952.00 783895.18
 -24339.631 -140844.88 787127.88
 24339.297 -140844.93 787127.88
 71225.200 -142952.12 783895.19
 112555.70 -147123.96 778258.15
 144125.36 -153416.72 771810.33
 161353.69 -161353.84 766765.89
 -153416.73 -144125.30 771810.34
 -139138.69 -139138.44 775423.06
 -109824.27 -134462.31 780934.39
 -69868.415 -131182.28 786072.27
 -23925.889 -129496.23 789086.99
 23925.587 -129496.28 789086.99
 69868.135 -131182.42 786072.27
 109824.03 -134462.51 780934.39
 139138.50 -139138.68 775423.05
 153416.58 -144125.55 771810.33
 -147123.98 -112555.63 778258.16
 -134462.54 -109823.96 780934.39
 -106958.94 -106958.67 785569.62
 -68380.867 -104785.54 790154.45
 -23468.558 -103624.67 792913.08
 23468.314 -103624.72 792913.08
 68380.638 -104785.69 790154.45
 106958.74 -106958.90 785569.62
 134462.37 -109824.24 780934.38
 147123.84 -112555.94 778258.14
 -142952.16 -71225.122 783895.19
 -131182.47 -69868.058 786072.27
 -104785.76 -68380.555 790154.44
 -67185.284 -67185.046 794337.65
 -23090.513 -66522.932 796894.93
 23090.345 -66522.992 796894.93
 67185.122 -67185.212 794337.65
 104785.61 -68380.810 790154.44
 131182.34 -69868.372 786072.26
 142952.05 -71225.472 783895.17
 -140844.99 -24339.213 787127.87
 -129496.36 -23925.499 789086.98
 -103624.80 -23468.229 792913.07
 -66523.084 -23090.259 796894.92
 -22876.830 -22876.676 799345.55
 22876.751 -22876.735 799345.55
 66523.006 -23090.432 796894.93
 103624.74 -23468.492 792913.07
 129496.29 -23925.834 789086.98
 140844.94 -24339.582 787127.87
 -140844.97 24339.724 787127.86
 -129496.33 23925.981 789086.97
 -103624.77 23468.652 792913.07
 -66523.038 23090.599 796894.92
 -22876.785 22876.908 799345.54
 22876.801 22876.849 799345.55
 66523.055 23090.429 796894.92
 103624.78 23468.386 792913.07
 129496.34 23925.651 789086.98
 140844.98 24339.357 787127.87
 -142952.10 71225.608 783895.15
 -131182.39 69868.514 786072.24
 -104785.65 68380.962 790154.42
 -67185.166 67185.372 794337.64
 -23090.377 66523.159 796894.91
 23090.484 66523.100 796894.92
 67185.266 67185.208 794337.64
 104785.74 68380.714 790154.43
 131182.47 69868.204 786072.26
 142952.16 71225.266 783895.17
 -147123.90 112556.07 778258.11
 -134462.43 109824.37 780934.35
 -106958.80 106959.04 785569.59
 -68380.682 104785.84 790154.42
 -23468.352 103624.88 792913.06
 23468.535 103624.83 792913.06
 68380.855 104785.69 790154.43
 106958.94 106958.82 785569.60
 134462.55 109824.10 780934.37
 147124.00 112555.77 778258.14
 -153416.65 144125.67 771810.29
 -139138.57 139138.79 775423.02
 -109824.09 134462.64 780934.36
 -69868.188 131182.55 786072.25
 -23925.623 129496.42 789086.97
 23925.866 129496.37 789086.97
 69868.410 131182.42 786072.25
 109824.28 134462.45 780934.36
 139138.72 139138.57 775423.03
 153416.76 144125.43 771810.31
 -161353.77 161353.95 766765.85
 -144125.43 153416.83 771810.30
 -112555.77 147124.07 778258.12
 -71225.253 142952.24 783895.16
 -24339.336 140845.05 787127.86
 24339.611 140845.01 787127.86
 71225.507 142952.12 783895.16
 112555.98 147123.91 778258.12
 144125.59 153416.65 771810.30
 161353.89 161353.76 766765.86
 -228919.64 -228919.40 731567.98
 -205270.23 -225583.37 739578.44
 -160904.99 -224408.35 750833.19
 -102230.88 -224013.15 761161.58
 -35029.371 -223856.93 767242.48
 35029.010 -223856.97 767242.48
 102230.55 -224013.27 761161.59
 160904.70 -224408.54 750833.19
 205270.01 -225583.59 739578.44
 228919.47 -228919.63 731567.96
 -225583.61 -205269.93 739578.45
 -205049.22 -205048.93 745593.56
 -162235.34 -205454.77 755955.05
 -103581.25 -205927.78 766070.93
 -35565.094 -206188.36 772153.80
 35564.759 -206188.41 772153.80
 103580.94 -205927.93 766070.94
 162235.07 -205454.99 755955.04
 205049.01 -205049.18 745593.55
 225583.44 -205270.20 739578.43
 -224408.58 -160904.61 750833.20
 -205455.04 -162234.98 755955.05
 -163703.69 -163703.36 765769.10
 -105006.99 -164749.58 775777.74
 -36134.857 -165266.35 781908.76
 36134.575 -165266.41 781908.76
 105006.73 -164749.75 775777.74
 163703.46 -163703.61 765769.09
 205454.85 -162235.29 755955.04
 224408.42 -160904.95 750833.18
 -224013.34 -102230.45 761161.59
 -205928.01 -103580.83 766070.93
 -164749.85 -105006.61 775777.74
 -105988.35 -105988.04 785832.68
 -36526.750 -106464.14 792042.41
 36526.546 -106464.21 792042.41
 105988.15 -105988.23 785832.68
 164749.68 -105006.90 775777.74
 205927.86 -103581.18 766070.92
 224013.22 -102230.83 761161.57
 -223857.06 -35028.893 767242.46
 -206188.51 -35564.639 772153.78
 -165266.53 -36134.449 781908.74
 -106464.34 -36526.425 792042.40
 -36716.269 -36716.050 798313.13
 36716.163 -36716.123 798313.13
 106464.24 -36526.628 792042.40
 165266.44 -36134.757 781908.74
 206188.44 -35565.013 772153.78
 223856.99 -35029.299 767242.46
 -223857.03 35029.495 767242.44
 -206188.48 35565.223 772153.76
 -165266.49 36134.986 781908.72
 -106464.30 36526.875 792042.39
 -36716.214 36716.381 798313.11
 36716.217 36716.309 798313.12
 106464.30 36526.672 792042.40
 165266.49 36134.681 781908.74
 206188.48 35564.849 772153.77
 223857.03 35029.090 767242.46
 -224013.27 102231.01 761161.53
 -205927.92 103581.38 766070.88
 -164749.73 105007.12 775777.69
 -105988.21 105988.47 785832.64
 -36526.601 106464.45 792042.38
 36526.704 106464.38 792042.38
 105988.31 105988.28 785832.66
 164749.82 105006.83 775777.72
 205927.99 103581.03 766070.91
 224013.32 102230.63 761161.57
 -224408.48 160905.11 750833.12
 -205454.92 162235.46 755954.98
 -163703.52 163703.81 765769.04
 -105006.79 164749.96 775777.69
 -36134.627 165266.63 781908.71
 36134.814 165266.57 781908.71
 105006.96 164749.79 775777.70
 163703.67 163703.55 765769.06
 205455.03 162235.16 755955.01
 224408.58 160904.78 750833.16
 -225583.51 205270.35 739578.37
 -205049.08 205049.34 745593.49
 -162235.14 205455.15 755954.99
 -103581.00 205928.10 766070.88
 -35564.813 206188.60 772153.75
 35565.057 206188.55 772153.75
 103581.23 205927.96 766070.89
 162235.33 205454.94 755955.00
 205049.23 205049.09 745593.51
 225583.62 205270.08 739578.41
 -228919.54 228919.75 731567.90
 -205270.08 225583.72 739578.38
 -160904.77 224408.68 750833.14
 -102230.61 224013.42 761161.54
 -35029.061 223857.13 767242.43
 35029.335 223857.09 767242.43
 102230.87 224013.30 761161.54
 160904.99 224408.50 750833.14
 205270.24 225583.51 739578.40
 228919.67 228919.53 731567.93
 -282106.27 -282106.02 693420.68
 -250219.63 -288382.69 703011.78
 -195448.23 -295007.73 717475.04
 -124335.20 -300015.24 731116.69
 -42681.173 -302678.66 739299.63
 42680.799 -302678.71 739299.63
 124334.85 -300015.37 731116.69
 195447.94 -295007.92 717475.04