# OOMMF OVF 2.0
#
# Segment count: 1
#
# Begin: Segment
# Begin: Header
#
# Title: Oxs_MinDriver::Magnetization
# Desc: Oxs vector field output
# Desc:  MIF source file: /home/ryan/Git/joommf/tools/omfvis/cube_example.mif
# Desc:  Iteration: 4112, State id: 8642
# Desc:  Stage: 20, Stage iteration: 126
# Desc:  Stage simulation time: 0 s
# Desc:  Total simulation time: -2 s
# meshunit: m
# meshtype: rectangular
# xbase: 2.5000000000000001e-09
# ybase: 2.5000000000000001e-09
# zbase: 2.5000000000000001e-09
# xnodes: 10
# ynodes: 10
# znodes: 10
# xstepsize: 5.0000000000000001e-09
# ystepsize: 5.0000000000000001e-09
# zstepsize: 5.0000000000000001e-09
# xmin: 0
# ymin: 0
# zmin: 0
# xmax: 4.9999999999999998e-08
# ymax: 4.9999999999999998e-08
# zmax: 4.9999999999999998e-08
# valuedim: 3
# valuelabels: Magnetization_x Magnetization_y Magnetization_z
# valueunits: A/m A/m A/m
#
# End: Header
#
# Begin: Data Text
 468848.75 72505.093 644145.84
 487685.74 86193.831 628278.00
 494042.25 120041.46 617666.82
 478497.75 172827.48 617390.12
 435311.81 240068.69 626793.94
 361502.88 313653.76 641043.67
 259070.93 382245.87 653276.62
 137909.61 434173.65 657627.69
 17292.753 462305.44 652667.33
 -72505.093 468848.75 644145.84
 462305.44 -17292.753 652667.33
 481303.73 4484.8357 639004.38
 486489.98 50582.148 633063.15
 468065.53 120303.67 637527.79
 419947.25 208090.22 648338.47
 339913.00 302394.76 658039.94
 232645.68 387486.24 660098.78
 111131.72 449270.32 652538.06
 -4484.8355 481303.73 639004.38
 -86193.831 487685.74 628278.00
 434173.65 -137909.61 657627.69
 449270.32 -111131.72 652538.06
 449556.19 -53313.493 659588.43
 424992.12 35665.298 676838.01
 368974.42 149105.73 693992.33
 280968.44 270118.48 698636.34
 170169.22 375969.64 685338.80
 53313.493 449556.19 659588.43
 -50582.148 486489.98 633063.15
 -120041.46 494042.25 617666.82
 382245.87 -259070.93 653276.62
 387486.24 -232645.68 660098.78
 375969.64 -170169.22 685338.80
 339317.51 -68264.899 721251.36
 272000.37 66933.304 749356.88
 176918.97 213133.86 750515.58
 68264.899 339317.51 721251.36
 -35665.298 424992.12 676838.01
 -120303.67 468065.53 637527.79
 -172827.48 478497.75 617390.12
 313653.76 -361502.88 641043.67
 302394.76 -339913.00 658039.94
 270118.48 -280968.44 698636.34
 213133.86 -176918.97 750515.58
 130623.04 -31404.213 788638.95
 31404.214 130623.04 788638.95
 -66933.304 272000.37 749356.88
 -149105.73 368974.42 693992.33
 -208090.22 419947.25 648338.47
 -240068.69 435311.82 626793.94
 240068.69 -435311.82 626793.94
 208090.22 -419947.25 648338.47
 149105.73 -368974.42 693992.33
 66933.305 -272000.37 749356.88
 -31404.214 -130623.04 788638.95
 -130623.04 31404.214 788638.95
 -213133.86 176918.97 750515.58
 -270118.48 280968.44 698636.34
 -302394.76 339913.00 658039.94
 -313653.76 361502.88 641043.67
 172827.48 -478497.75 617390.12
 120303.67 -468065.53 637527.79
 35665.299 -424992.12 676838.01
 -68264.899 -339317.52 721251.36
 -176918.97 -213133.86 750515.58
 -272000.37 -66933.305 749356.88
 -339317.51 68264.899 721251.36
 -375969.64 170169.22 685338.80
 -387486.24 232645.68 660098.78
 -382245.87 259070.93 653276.62
 120041.46 -494042.25 617666.82
 50582.148 -486489.98 633063.15
 -53313.493 -449556.19 659588.43
 -170169.22 -375969.64 685338.80
 -280968.44 -270118.48 698636.34
 -368974.42 -149105.73 693992.33
 -424992.12 -35665.298 676838.01
 -449556.19 53313.493 659588.43
 -449270.32 111131.72 652538.06
 -434173.65 137909.61 657627.69
 86193.831 -487685.74 628278.00
 4484.8362 -481303.73 639004.38
 -111131.72 -449270.32 652538.06
 -232645.68 -387486.24 660098.78
 -339913.00 -302394.76 658039.94
 -419947.25 -208090.22 648338.47
 -468065.53 -120303.67 637527.79
 -486489.98 -50582.148 633063.15
 -481303.73 -4484.8354 639004.38
 -462305.44 17292.754 652667.33
 72505.093 -468848.75 644145.84
 -17292.753 -462305.44 652667.33
 -137909.61 -434173.65 657627.69
 -259070.93 -382245.87 653276.62
 -361502.88 -313653.76 641043.67
 -435311.81 -240068.69 626793.94
 -478497.75 -172827.48 617390.12
 -494042.25 -120041.46 617666.82
 -487685.74 -86193.831 628278.00
 -468848.75 -72505.092 644145.84
 415887.30 28007.443 682827.46
 440684.97 36753.785 666667.77
 455167.47 65818.864 654591.82
 448711.31 113254.58 652557.71
 416314.55 174658.37 660436.71
 355497.42 243314.76 674106.45
 267600.91 309984.41 687240.44
 160691.55 364578.87 693729.40
 52258.558 399888.10 690911.39
 -28007.444 415887.30 682827.46
 399888.10 -52258.557 690911.39
 423982.11 -32926.994 677609.76
 436494.61 8502.1301 670373.15
 426891.39 71307.361 672814.24
 390586.23 150758.11 681699.63
 326114.19 237684.81 690764.41
 236903.67 319485.22 694122.36
 133197.98 383939.13 689092.92
 32926.993 423982.11 677609.76
 -36753.785 440684.97 666667.77
 364578.87 -160691.55 693729.40
 383939.13 -133197.97 689092.92
 390451.15 -78983.407 693764.74
 374560.09 1696.0129 706895.94
 332324.14 103388.28 720327.38
 263877.81 213288.95 724483.49
 175354.67 313933.87 714630.16
 78983.405 390451.15 693764.74
 -8502.1289 436494.62 670373.15
 -65818.864 455167.47 654591.82
 309984.41 -267600.91 687240.44
 319485.22 -236903.67 694122.36
 313933.87 -175354.67 714630.16
 286839.43 -81525.983 742345.38
 236300.83 38815.946 763318.57
 165008.79 169127.91 764308.74
 81525.981 286839.43 742345.38
 -1696.0113 374560.09 706895.94
 -71307.362 426891.39 672814.24
 -113254.58 448711.31 652557.71
 243314.76 -355497.42 674106.45
 237684.81 -326114.18 690764.41
 213288.95 -263877.81 724483.49
 169127.91 -165008.79 764308.74
 107539.08 -34897.988 791970.63
 34897.987 107539.08 791970.63
 -38815.944 236300.83 763318.57
 -103388.28 332324.14 720327.38
 -150758.11 390586.23 681699.63
 -174658.37 416314.55 660436.71
 174658.37 -416314.55 660436.71
 150758.11 -390586.23 681699.63
 103388.28 -332324.14 720327.38
 38815.944 -236300.83 763318.57
 -34897.986 -107539.08 791970.63
 -107539.08 34897.985 791970.63
 -169127.91 165008.79 764308.74
 -213288.95 263877.81 724483.49
 -237684.81 326114.18 690764.41
 -243314.76 355497.42 674106.45
 113254.58 -448711.31 652557.71
 71307.362 -426891.39 672814.24
 1696.0121 -374560.09 706895.94
 -81525.981 -286839.43 742345.38
 -165008.79 -169127.91 764308.74
 -236300.83 -38815.943 763318.57
 -286839.43 81525.982 742345.38
 -313933.87 175354.67 714630.16
 -319485.22 236903.67 694122.35
 -309984.41 267600.91 687240.44
 65818.864 -455167.47 654591.82
 8502.1299 -436494.62 670373.15
 -78983.405 -390451.15 693764.74
 -175354.67 -313933.87 714630.16
 -263877.81 -213288.95 724483.49
 -332324.14 -103388.28 720327.38
 -374560.09 -1696.0112 706895.94
 -390451.15 78983.406 693764.74
 -383939.13 133197.97 689092.92
 -364578.87 160691.55 693729.40
 36753.785 -440684.97 666667.77
 -32926.993 -423982.11 677609.76
 -133197.97 -383939.13 689092.92
 -236903.67 -319485.22 694122.36
 -326114.18 -237684.81 690764.41
 -390586.23 -150758.11 681699.63
 -426891.39 -71307.362 672814.24
 -436494.61 -8502.1292 670373.15
 -423982.11 32926.994 677609.76
 -399888.10 52258.558 690911.39
 28007.444 -415887.30 682827.46
 -52258.557 -399888.10 690911.39
 -160691.55 -364578.87 693729.40
 -267600.90 -309984.41 687240.44
 -355497.42 -243314.76 674106.45
 -416314.55 -174658.37 660436.71
 -448711.31 -113254.58 652557.71
 -455167.47 -65818.864 654591.82
 -440684.97 -36753.784 666667.77
 -415887.30 -28007.443 682827.46
 346663.78 -29002.756 720404.79
 376014.63 -20542.267 705826.48
 399249.39 6274.6400 693224.75
 404259.98 49256.233 688583.83
 386193.14 104320.68 692800.15
 343089.01 166288.88 703305.01
 275764.60 228488.59 715364.84
 189907.44 283259.75 723670.56
 99137.294 323823.61 724782.77
 29002.757 346663.78 720404.79
 323823.61 -99137.294 724782.77
 351048.53 -80042.206 714393.57
 371477.65 -41377.457 707313.41
 373443.58 15340.180 707322.11
 352786.27 85978.777 712846.06
 308402.68 163785.83 719765.23
 242395.80 239782.42 723704.82
 161703.48 304574.49 721863.12
 80042.207 351048.53 714393.57
 20542.266 376014.62 705826.48
 283259.75 -189907.43 723670.56
 304574.49 -161703.48 721863.12
 318173.55 -110144.72 725695.35
 314174.74 -37248.631 734783.49
 289524.08 52208.760 743942.24
 244300.52 149185.87 747034.69
 181944.33 241651.54 740608.39
 110144.72 318173.55 725695.35
 41377.456 371477.65 707313.41
 -6274.6394 399249.39 693224.75
 228488.59 -275764.60 715364.84
 239782.42 -242395.80 723704.82
 241651.55 -181944.34 740608.39
 227890.14 -96398.597 760771.58
 197539.17 8625.5044 775179.90
 152254.58 121687.67 775893.46
 96398.600 227890.14 760771.58
 37248.628 314174.74 734783.49
 -15340.178 373443.58 707322.11
 -49256.233 404259.98 688583.83
 166288.88 -343089.01 703305.01
 163785.83 -308402.68 719765.23
 149185.87 -244300.52 747034.69
 121687.67 -152254.58 775893.46
 83591.660 -38558.189 794685.91
 38558.191 83591.658 794685.91
 -8625.5063 197539.17 775179.90
 -52208.758 289524.08 743942.24
 -85978.778 352786.27 712846.06
 -104320.68 386193.14 692800.15
 104320.68 -386193.14 692800.15
 85978.777 -352786.27 712846.06
 52208.759 -289524.08 743942.24
 8625.5064 -197539.17 775179.90
 -38558.191 -83591.662 794685.91
 -83591.659 38558.193 794685.91
 -121687.67 152254.58 775893.46
 -149185.87 244300.52 747034.69
 -163785.83 308402.69 719765.23
 -166288.88 343089.01 703305.01
 49256.233 -404259.98 688583.83
 15340.179 -373443.58 707322.11
 -37248.629 -314174.74 734783.49
 -96398.599 -227890.14 760771.58
 -152254.58 -121687.67 775893.46
 -197539.17 -8625.5075 775179.90
 -227890.14 96398.600 760771.58
 -241651.55 181944.34 740608.39
 -239782.42 242395.80 723704.82
 -228488.59 275764.60 715364.84
 6274.6400 -399249.39 693224.75
 -41377.456 -371477.65 707313.41
 -110144.72 -318173.55 725695.35
 -181944.33 -241651.54 740608.39
 -244300.52 -149185.87 747034.69
 -289524.08 -52208.757 743942.24
 -314174.74 37248.629 734783.49
 -318173.55 110144.72 725695.35
 -304574.49 161703.48 721863.12
 -283259.75 189907.43 723670.56
 -20542.266 -376014.63 705826.48
 -80042.206 -351048.53 714393.57
 -161703.48 -304574.49 721863.12
 -242395.80 -239782.42 723704.82
 -308402.68 -163785.83 719765.23
 -352786.27 -85978.778 712846.06
 -373443.58 -15340.178 707322.11
 -371477.65 41377.457 707313.41
 -351048.53 80042.206 714393.57
 -323823.61 99137.294 724782.77
 -29002.756 -346663.78 720404.79
 -99137.294 -323823.61 724782.77
 -189907.43 -283259.75 723670.56
 -275764.60 -228488.59 715364.84
 -343089.01 -166288.88 703305.01
 -386193.14 -104320.68 692800.15
 -404259.98 -49256.233 688583.83
 -399249.39 -6274.6394 693224.75
 -376014.62 20542.267 705826.48
 -346663.78 29002.757 720404.79
 274610.07 -87581.947 746269.87
 309158.22 -75851.607 733939.87
 341810.09 -47648.921 721730.86
 359220.59 -6023.6567 714789.68
 356267.78 45014.594 714875.48
 331199.52 101306.72 721140.64
 284453.54 158091.78 730816.79
 219784.95 209785.81 740057.08
 147115.69 250421.48 745416.70
 87581.947 274610.07 746269.87
 250421.48 -147115.69 745416.70
 281218.67 -126080.87 738254.48
 310029.08 -87096.954 732322.40
 324253.95 -33141.728 730589.49
 319384.93 31661.262 732796.58
 294183.78 102047.08 736914.04
 249744.05 171642.86 740382.77
 190437.96 233523.83 741080.30
 126080.87 281218.66 738254.48
 75851.607 309158.22 733939.87
 209785.81 -219784.95 740057.08
 233523.83 -190437.96 741080.30
 254664.98 -139583.15 745427.59
 262929.98 -71201.718 752195.55
 254904.87 9889.7927 758238.55
 230079.02 96849.716 760055.11
 190128.43 181268.36 755640.76
 139583.14 254664.98 745427.59
 87096.956 310029.08 732322.39
 47648.920 341810.09 721730.86
 158091.77 -284453.54 730816.79
 171642.86 -249744.05 740382.76
 181268.36 -190128.43 755640.76
 180564.37 -110289.41 771513.29
 167948.87 -15967.764 782009.08
 143863.05 84382.226 782421.28
 110289.41 180564.37 771513.29
 71201.721 262929.98 752195.55
 33141.727 324253.95 730589.49
 6023.6575 359220.59 714789.68
 101306.72 -331199.52 721140.64
 102047.08 -294183.77 736914.04
 96849.716 -230079.02 760055.11
 84382.226 -143863.04 782421.28
 65589.364 -42091.276 796194.93
 42091.274 65589.364 796194.93
 15967.766 167948.87 782009.08
 -9889.7947 254904.87 758238.55
 -31661.261 319384.93 732796.58
 -45014.594 356267.78 714875.48
 45014.594 -356267.78 714875.48
 31661.263 -319384.93 732796.58
 9889.7927 -254904.87 758238.55
 -15967.764 -167948.88 782009.08
 -42091.275 -65589.361 796194.93
 -65589.363 42091.273 796194.93
 -84382.227 143863.05 782421.28
 -96849.714 230079.02 760055.11
 -102047.08 294183.77 736914.04
 -101306.72 331199.52 721140.64
 -6023.6566 -359220.59 714789.68
 -33141.728 -324253.95 730589.49
 -71201.718 -262929.98 752195.55
 -110289.41 -180564.37 771513.29
 -143863.05 -84382.228 782421.28
 -167948.87 15967.766 782009.08
 -180564.37 110289.41 771513.29
 -181268.36 190128.43 755640.76
 -171642.86 249744.05 740382.76
 -158091.78 284453.54 730816.79
 -47648.920 -341810.09 721730.86
 -87096.954 -310029.08 732322.39
 -139583.15 -254664.98 745427.59
 -190128.43 -181268.36 755640.76
 -230079.02 -96849.715 760055.11
 -254904.87 -9889.7940 758238.55
 -262929.98 71201.720 752195.55
 -254664.98 139583.15 745427.59
 -233523.83 190437.96 741080.30
 -209785.81 219784.95 740057.08
 -75851.607 -309158.22 733939.87
 -126080.87 -281218.67 738254.48
 -190437.96 -233523.83 741080.30
 -249744.05 -171642.86 740382.76
 -294183.77 -102047.08 736914.04
 -319384.93 -31661.262 732796.58
 -324253.95 33141.728 730589.49
 -310029.08 87096.955 732322.39
 -281218.66 126080.87 738254.48
 -250421.48 147115.69 745416.70
 -87581.947 -274610.07 746269.87
 -147115.69 -250421.48 745416.70
 -219784.95 -209785.81 740057.08
 -284453.54 -158091.78 730816.79
 -331199.52 -101306.72 721140.64
 -356267.78 -45014.594 714875.48
 -359220.59 6023.6572 714789.68
 -341810.09 47648.920 721730.86
 -309158.22 75851.607 733939.87
 -274610.07 87581.947 746269.87
 207319.80 -145998.45 758750.92
 248537.64 -129402.10 749322.45
 292105.79 -97275.789 738384.47
 323000.03 -53934.313 729905.52
 335334.44 -3741.1492 726317.30
 327177.84 49440.552 728361.37
 298667.14 101789.20 735144.13
 252350.35 148984.45 744394.34
 195605.41 185951.91 753100.53
 145998.45 207319.80 758750.92
 185951.91 -195605.41 753100.53
 221622.31 -171548.85 749302.70
 259991.73 -129928.01 745334.16
 287102.23 -75342.988 742896.86
 297497.50 -12444.093 742522.99
 289404.61 53936.325 743865.47
 263158.75 118687.74 746096.97
 221500.53 176423.69 748205.99
 171548.85 221622.32 749302.70
 129402.10 248537.64 749322.45
 148984.45 -252350.35 744394.34
 176423.69 -221500.53 748205.99
 205949.88 -169540.27 754215.32
 226434.64 -102044.86 760469.72
 233454.58 -24382.773 764790.45
 225630.76 57313.927 765379.56
 203460.19 136323.18 761590.40
 169540.27 205949.89 754215.31
 129928.01 259991.73 745334.16
 97275.790 292105.79 738384.47
 101789.20 -298667.14 735144.13
 118687.73 -263158.75 746096.97
 136323.18 -203460.19 761590.40
 147640.90 -125836.65 776123.25
 149927.18 -36424.390 784980.96
 142470.01 57434.771 785113.71
 125836.66 147640.90 776123.25
 102044.86 226434.64 760469.72
 75342.989 287102.24 742896.86
 53934.313 323000.03 729905.52
 49440.551 -327177.84 728361.37
 53936.327 -289404.61 743865.47
 57313.925 -225630.75 765379.56
 57434.772 -142470.01 785113.71
 53811.138 -46614.078 796825.88
 46614.080 53811.139 796825.88
 36424.388 149927.18 784980.96
 24382.775 233454.59 764790.45
 12444.092 297497.49 742522.99
 3741.1497 335334.44 726317.30
 -3741.1486 -335334.44 726317.30
 -12444.095 -297497.49 742522.99
 -24382.772 -233454.59 764790.45
 -36424.391 -149927.18 784980.96
 -46614.078 -53811.141 796825.88
 -53811.140 46614.080 796825.88
 -57434.769 142470.01 785113.71
 -57313.928 225630.75 765379.56
 -53936.324 289404.61 743865.47
 -49440.552 327177.84 728361.37
 -53934.313 -323000.03 729905.52
 -75342.987 -287102.23 742896.86
 -102044.86 -226434.64 760469.72
 -125836.65 -147640.91 776123.25
 -142470.01 -57434.769 785113.71
 -149927.18 36424.389 784980.96
 -147640.91 125836.66 776123.25
 -136323.18 203460.19 761590.40
 -118687.74 263158.75 746096.97
 -101789.20 298667.14 735144.13
 -97275.789 -292105.79 738384.47
 -129928.01 -259991.73 745334.16
 -169540.27 -205949.88 754215.32
 -203460.19 -136323.18 761590.40
 -225630.75 -57313.927 765379.56
 -233454.59 24382.773 764790.45
 -226434.64 102044.86 760469.72
 -205949.88 169540.27 754215.32
 -176423.69 221500.53 748205.99
 -148984.45 252350.35 744394.34
 -129402.10 -248537.64 749322.45
 -171548.85 -221622.31 749302.70
 -221500.53 -176423.69 748205.99
 -263158.75 -118687.73 746096.97
 -289404.61 -53936.326 743865.47
 -297497.49 12444.094 742522.99
 -287102.23 75342.988 742896.86
 -259991.73 129928.01 745334.16
 -221622.31 171548.85 749302.70
 -185951.91 195605.41 753100.53
 -145998.45 -207319.80 758750.92
 -195605.41 -185951.91 753100.53
 -252350.35 -148984.45 744394.34
 -298667.14 -101789.20 735144.13
 -327177.84 -49440.552 728361.37
 -335334.44 3741.1490 726317.30
 -323000.03 53934.313 729905.52
 -292105.79 97275.790 738384.47
 -248537.64 129402.10 749322.45
 -207319.80 145998.45 758750.92
 145998.45 -207319.80 758750.92
 195605.41 -185951.91 753100.53
 252350.35 -148984.45 744394.34
 298667.14 -101789.20 735144.13
 327177.84 -49440.551 728361.37
 335334.44 3741.1490 726317.30
 323000.03 53934.313 729905.52
 292105.79 97275.790 738384.47
 248537.64 129402.10 749322.45
 207319.80 145998.45 758750.92
 129402.10 -248537.64 749322.45
 171548.85 -221622.32 749302.70
 221500.53 -176423.69 748205.99
 263158.75 -118687.73 746096.97
 289404.61 -53936.326 743865.47
 297497.50 12444.094 742522.99
 287102.23 75342.988 742896.86
 259991.73 129928.01 745334.16
 221622.31 171548.85 749302.70
 185951.91 195605.41 753100.53
 97275.790 -292105.79 738384.47
 129928.01 -259991.73 745334.16
 169540.27 -205949.88 754215.31
 203460.19 -136323.18 761590.40
 225630.76 -57313.926 765379.56
 233454.59 24382.774 764790.45
 226434.64 102044.86 760469.72
 205949.88 169540.27 754215.32
 176423.69 221500.53 748205.99
 148984.45 252350.35 744394.34
 53934.312 -323000.03 729905.52
 75342.989 -287102.23 742896.86
 102044.86 -226434.64 760469.72
 125836.66 -147640.91 776123.25
 142470.01 -57434.770 785113.71
 149927.18 36424.389 784980.96
 147640.90 125836.66 776123.25
 136323.18 203460.19 761590.40
 118687.73 263158.75 746096.97
 101789.20 298667.14 735144.13
 3741.1497 -335334.44 726317.30
 12444.092 -297497.49 742522.99
 24382.775 -233454.59 764790.45
 36424.388 -149927.18 784980.96
 46614.080 -53811.140 796825.88
 53811.139 46614.080 796825.88
 57434.771 142470.01 785113.71
 57313.925 225630.76 765379.56
 53936.327 289404.61 743865.47
 49440.551 327177.84 728361.37
 -49440.552 -327177.84 728361.37
 -53936.324 -289404.61 743865.47
 -57313.928 -225630.75 765379.56
 -57434.769 -142470.01 785113.71
 -53811.140 -46614.078 796825.88
 -46614.078 53811.139 796825.88
 -36424.390 149927.18 784980.96
 -24382.772 233454.59 764790.45
 -12444.095 297497.49 742522.99
 -3741.1486 335334.44 726317.30
 -101789.20 -298667.14 735144.13
 -118687.74 -263158.75 746096.97
 -136323.18 -203460.19 761590.40
 -147640.91 -125836.65 776123.25
 -149927.18 -36424.390 784980.96
 -142470.01 57434.770 785113.71
 -125836.65 147640.91 776123.25
 -102044.86 226434.64 760469.72
 -75342.987 287102.23 742896.86
 -53934.313 323000.03 729905.52
 -148984.45 -252350.35 744394.34
 -176423.69 -221500.53 748205.99
 -205949.89 -169540.27 754215.32
 -226434.64 -102044.86 760469.72
 -233454.59 -24382.774 764790.45
 -225630.75 57313.927 765379.56
 -203460.19 136323.18 761590.40
 -169540.27 205949.89 754215.32
 -129928.01 259991.73 745334.16
 -97275.790 292105.79 738384.47
 -185951.91 -195605.41 753100.53
 -221622.32 -171548.85 749302.70
 -259991.73 -129928.01 745334.16
 -287102.23 -75342.988 742896.86
 -297497.49 -12444.093 742522.99
 -289404.61 53936.325 743865.47
 -263158.75 118687.74 746096.97
 -221500.53 176423.69 748205.99
 -171548.85 221622.32 749302.70
 -129402.10 248537.64 749322.45
 -207319.80 -145998.45 758750.92
 -248537.64 -129402.10 749322.45
 -292105.79 -97275.790 738384.47
 -323000.03 -53934.313 729905.52
 -335334.44 -3741.1492 726317.30
 -327177.84 49440.552 728361.37
 -298667.14 101789.20 735144.13
 -252350.35 148984.45 744394.34
 -195605.41 185951.91 753100.53
 -145998.45 207319.80 758750.92
 87581.947 -274610.07 746269.87
 147115.69 -250421.48 745416.70
 219784.95 -209785.81 740057.08
 284453.54 -158091.77 730816.79
 331199.52 -101306.72 721140.64
 356267.78 -45014.594 714875.48
 359220.59 6023.6573 714789.68
 341810.09 47648.920 721730.86
 309158.22 75851.608 733939.87
 274610.07 87581.947 746269.87
 75851.608 -309158.22 733939.87
 126080.87 -281218.67 738254.48
 190437.96 -233523.83 741080.30
 249744.05 -171642.86 740382.76
 294183.78 -102047.08 736914.04
 319384.93 -31661.262 732796.58
 324253.95 33141.727 730589.49
 310029.08 87096.956 732322.39
 281218.67 126080.87 738254.48
 250421.48 147115.69 745416.70
 47648.920 -341810.09 721730.86
 87096.956 -310029.08 732322.39
 139583.14 -254664.98 745427.59
 190128.43 -181268.36 755640.76
 230079.02 -96849.715 760055.11
 254904.87 -9889.7939 758238.55
 262929.98 71201.721 752195.55
 254664.98 139583.14 745427.59
 233523.83 190437.96 741080.30
 209785.81 219784.95 740057.08
 6023.6575 -359220.59 714789.68
 33141.727 -324253.95 730589.49
 71201.721 -262929.98 752195.55
 110289.41 -180564.37 771513.29
 143863.05 -84382.227 782421.28
 167948.87 15967.766 782009.08
 180564.37 110289.41 771513.29
 181268.36 190128.43 755640.76
 171642.86 249744.05 740382.76
 158091.77 284453.54 730816.79
 -45014.594 -356267.78 714875.48
 -31661.261 -319384.93 732796.58
 -9889.7946 -254904.87 758238.55
 15967.766 -167948.88 782009.08
 42091.274 -65589.362 796194.93
 65589.363 42091.273 796194.93
 84382.227 143863.05 782421.28
 96849.716 230079.02 760055.11
 102047.08 294183.78 736914.04
 101306.72 331199.52 721140.64
 -101306.72 -331199.52 721140.64
 -102047.08 -294183.78 736914.04
 -96849.715 -230079.02 760055.11
 -84382.227 -143863.04 782421.28
 -65589.363 -42091.276 796194.93
 -42091.274 65589.364 796194.93
 -15967.765 167948.87 782009.08
 9889.7932 254904.87 758238.55
 31661.263 319384.93 732796.58
 45014.594 356267.78 714875.48
 -158091.78 -284453.54 730816.79
 -171642.86 -249744.05 740382.76
 -181268.36 -190128.43 755640.76
 -180564.37 -110289.41 771513.29
 -167948.87 -15967.764 782009.08
 -143863.05 84382.226 782421.28
 -110289.41 180564.37 771513.29
 -71201.719 262929.98 752195.55
 -33141.728 324253.95 730589.49
 -6023.6568 359220.59 714789.68
 -209785.81 -219784.95 740057.08
 -233523.83 -190437.96 741080.30
 -254664.98 -139583.15 745427.59
 -262929.98 -71201.719 752195.55
 -254904.87 9889.7934 758238.55
 -230079.02 96849.715 760055.11
 -190128.43 181268.36 755640.76
 -139583.14 254664.98 745427.59
 -87096.955 310029.08 732322.39
 -47648.920 341810.09 721730.86
 -250421.48 -147115.69 745416.70
 -281218.67 -126080.87 738254.48
 -310029.08 -87096.955 732322.39
 -324253.95 -33141.728 730589.49
 -319384.93 31661.262 732796.58
 -294183.77 102047.08 736914.04
 -249744.05 171642.86 740382.76
 -190437.96 233523.83 741080.30
 -126080.87 281218.67 738254.48
 -75851.607 309158.22 733939.87
 -274610.07 -87581.947 746269.87
 -309158.22 -75851.607 733939.87
 -341810.09 -47648.920 721730.86
 -359220.59 -6023.6570 714789.68
 -356267.78 45014.594 714875.48
 -331199.52 101306.72 721140.64
 -284453.54 158091.78 730816.79
 -219784.95 209785.81 740057.08
 -147115.69 250421.48 745416.70
 -87581.947 274610.07 746269.87
 29002.757 -346663.78 720404.79
 99137.294 -323823.61 724782.77
 189907.44 -283259.75 723670.56
 275764.60 -228488.59 715364.84
 343089.01 -166288.88 703305.01
 386193.14 -104320.68 692800.15
 404259.98 -49256.233 688583.83
 399249.39 -6274.6390 693224.75
 376014.63 20542.266 705826.48
 346663.78 29002.757 720404.79
 20542.266 -376014.63 705826.48
 80042.207 -351048.53 714393.57
 161703.48 -304574.49 721863.12
 242395.80 -239782.42 723704.82
 308402.68 -163785.83 719765.23
 352786.27 -85978.777 712846.06
 373443.58 -15340.177 707322.11
 371477.65 41377.456 707313.41
 351048.53 80042.208 714393.57
 323823.61 99137.294 724782.77
 -6274.6392 -399249.39 693224.75
 41377.456 -371477.65 707313.41
 110144.72 -318173.55 725695.35
 181944.33 -241651.55 740608.39
 244300.52 -149185.87 747034.69
 289524.08 -52208.757 743942.24
 314174.74 37248.628 734783.49
 318173.55 110144.72 725695.35
 304574.49 161703.48 721863.12
 283259.75 189907.44 723670.56
 -49256.233 -404259.98 688583.83
 -15340.178 -373443.58 707322.11
 37248.629 -314174.74 734783.49
 96398.600 -227890.14 760771.58
 152254.58 -121687.67 775893.46
 197539.17 -8625.5074 775179.90
 227890.14 96398.602 760771.58
 241651.55 181944.33 740608.39
 239782.42 242395.80 723704.82
 228488.59 275764.60 715364.84
 -104320.68 -386193.14 692800.15
 -85978.778 -352786.27 712846.06
 -52208.758 -289524.08 743942.24
 -8625.5058 -197539.17 775179.90
 38558.190 -83591.661 794685.91
 83591.661 38558.193 794685.91
 121687.67 152254.58 775893.46
 149185.87 244300.53 747034.69
 163785.83 308402.68 719765.23
 166288.88 343089.01 703305.01
 -166288.88 -343089.01 703305.01
 -163785.83 -308402.68 719765.23
 -149185.87 -244300.52 747034.69
 -121687.67 -152254.58 775893.46
 -83591.659 -38558.190 794685.91
 -38558.192 83591.659 794685.91
 8625.5069 197539.17 775179.90
 52208.758 289524.08 743942.24
 85978.777 352786.27 712846.05
 104320.68 386193.14 692800.15
 -228488.59 -275764.60 715364.84
 -239782.42 -242395.80 723704.82
 -241651.55 -181944.33 740608.39
 -227890.14 -96398.599 760771.58
 -197539.17 8625.5054 775179.90
 -152254.58 121687.67 775893.46
 -96398.600 227890.14 760771.58
 -37248.629 314174.74 734783.49
 15340.178 373443.58 707322.11
 49256.233 404259.98 688583.83
 -283259.75 -189907.44 723670.56
 -304574.49 -161703.48 721863.12
 -318173.55 -110144.72 725695.35
 -314174.74 -37248.630 734783.49
 -289524.08 52208.759 743942.24
 -244300.52 149185.87 747034.69
 -181944.33 241651.55 740608.39
 -110144.72 318173.55 725695.35
 -41377.456 371477.65 707313.41
 6274.6396 399249.39 693224.75
 -323823.61 -99137.294 724782.77
 -351048.53 -80042.206 714393.57
 -371477.65 -41377.457 707313.41
 -373443.58 15340.179 707322.11
 -352786.27 85978.777 712846.06
 -308402.68 163785.83 719765.23
 -242395.80 239782.42 723704.82
 -161703.48 304574.49 721863.12
 -80042.206 351048.53 714393.57
 -20542.266 376014.63 705826.48
 -346663.78 -29002.757 720404.79
 -376014.63 -20542.266 705826.48
 -399249.39 6274.6397 693224.75
 -404259.98 49256.233 688583.83
 -386193.14 104320.68 692800.15
 -343089.01 166288.88 703305.01
 -275764.60 228488.59 715364.84
 -189907.43 283259.75 723670.56
 -99137.294 323823.61 724782.77
 -29002.757 346663.78 720404.79
 -28007.443 -415887.30 682827.46
 52258.558 -399888.10 690911.39
 160691.55 -364578.87 693729.40
 267600.91 -309984.41 687240.44
 355497.42 -243314.76 674106.45
 416314.55 -174658.37 660436.71
 448711.31 -113254.58 652557.71
 455167.47 -65818.864 654591.82
 440684.97 -36753.784 666667.77
 415887.30 -28007.443 682827.46
 -36753.784 -440684.97 666667.77
 32926.994 -423982.11 677609.76
 133197.98 -383939.13 689092.92
 236903.67 -319485.22 694122.36
 326114.19 -237684.81 690764.41
 390586.23 -150758.11 681699.63
 426891.39 -71307.362 672814.24
 436494.62 -8502.1280 670373.15
 423982.11 32926.993 677609.76
 399888.10 52258.558 690911.39
 -65818.864 -455167.47 654591.82
 -8502.1287 -436494.61 670373.15
 78983.406 -390451.15 693764.74
 175354.67 -313933.87 714630.16
 263877.81 -213288.95 724483.49
 332324.14 -103388.28 720327.38
 374560.09 -1696.0100 706895.94
 390451.15 78983.405 693764.74
 383939.13 133197.98 689092.92
 364578.87 160691.55 693729.40
 -113254.58 -448711.31 652557.71
 -71307.361 -426891.39 672814.24
 -1696.0113 -374560.09 706895.94
 81525.982 -286839.43 742345.38
 165008.79 -169127.91 764308.74
 236300.83 -38815.943 763318.57
 286839.43 81525.981 742345.38
 313933.87 175354.67 714630.16
 319485.22 236903.67 694122.36
 309984.41 267600.91 687240.44
 -174658.37 -416314.55 660436.71
 -150758.11 -390586.23 681699.63
 -103388.28 -332324.14 720327.38
 -38815.945 -236300.83 763318.57
 34897.988 -107539.08 791970.63
 107539.08 34897.986 791970.63
 169127.91 165008.79 764308.74
 213288.95 263877.81 724483.49
 237684.81 326114.19 690764.41
 243314.76 355497.42 674106.45
 -243314.76 -355497.42 674106.45
 -237684.81 -326114.19 690764.41
 -213288.95 -263877.81 724483.49
 -169127.91 -165008.79 764308.74
 -107539.08 -34897.988 791970.63
 -34897.986 107539.08 791970.63
 38815.944 236300.83 763318.57
 103388.28 332324.14 720327.38
 150758.11 390586.23 681699.63
 174658.37 416314.55 660436.71
 -309984.41 -267600.91 687240.44
 -319485.22 -236903.67 694122.36
 -313933.87 -175354.67 714630.16
 -286839.43 -81525.982 742345.37
 -236300.83 38815.945 763318.57
 -165008.79 169127.91 764308.74
 -81525.981 286839.43 742345.37
 1696.0114 374560.09 706895.94
 71307.361 426891.39 672814.24
 113254.58 448711.31 652557.71
 -364578.87 -160691.55 693729.40
 -383939.13 -133197.98 689092.92
 -390451.15 -78983.406 693764.74
 -374560.09 1696.0120 706895.94
 -332324.14 103388.28 720327.38
 -263877.81 213288.95 724483.49
 -175354.67 313933.87 714630.16
 -78983.406 390451.15 693764.74
 8502.1293 436494.62 670373.15
 65818.864 455167.47 654591.82
 -399888.10 -52258.558 690911.39
 -423982.11 -32926.993 677609.76
 -436494.62 8502.1293 670373.15
 -426891.39 71307.361 672814.24
 -390586.23 150758.11 681699.63
 -326114.19 237684.81 690764.41
 -236903.67 319485.22 694122.36
 -133197.97 383939.13 689092.92
 -32926.994 423982.11 677609.76
 36753.785 440684.97 666667.77
 -415887.30 28007.443 682827.46
 -440684.97 36753.785 666667.77
 -455167.47 65818.864 654591.82
 -448711.31 113254.58 652557.71
 -416314.55 174658.37 660436.71
 -355497.42 243314.76 674106.45
 -267600.91 309984.41 687240.44
 -160691.55 364578.87 693729.40
 -52258.558 399888.10 690911.39
 28007.443 415887.30 682827.46
 -72505.092 -468848.75 644145.84
 17292.754 -462305.44 652667.33
 137909.61 -434173.65 657627.69
 259070.93 -382245.87 653276.62
 361502.88 -313653.76 641043.67
 435311.82 -240068.69 626793.94
 478497.75 -172827.48 617390.12
 494042.25 -120041.46 617666.82