# ODT 1.0
# Table Start
# Title: mmArchive Data Table, Thu Aug 04 12:59:39 BST 2016
# Columns: {Oxs_CGEvolve:evolver:Max mxHxm} {Oxs_CGEvolve:evolver:Total energy} {Oxs_CGEvolve:evolver:Delta E} {Oxs_CGEvolve:evolver:Bracket count} {Oxs_CGEvolve:evolver:Line min count} {Oxs_CGEvolve:evolver:Conjugate cycle count} {Oxs_CGEvolve:evolver:Cycle count} {Oxs_CGEvolve:evolver:Cycle sub count} {Oxs_CGEvolve:evolver:Energy calc count} Oxs_UniformExchange::Energy {Oxs_UniformExchange::Max Spin Ang} {Oxs_UniformExchange::Stage Max Spin Ang} {Oxs_UniformExchange::Run Max Spin Ang} Oxs_UZeeman::Energy  Oxs_UZeeman::B       Oxs_UZeeman::Bx      Oxs_UZeeman::By      Oxs_UZeeman::Bz      Oxs_Demag::Energy    Oxs_MinDriver::Iteration {Oxs_MinDriver::Stage iteration} Oxs_MinDriver::Stage Oxs_MinDriver::mx    Oxs_MinDriver::my    Oxs_MinDriver::mz   
# Units:                 A/m                                 J                                J                                 {}                                   {}                                        {}                                      {}                                   {}                                      {}                                 J                              deg                                    deg                                      deg                            J                 mT                   mT                   mT                   mT                     J                       {}                           {}                         {}                 {}                   {}                   {}           
                  271079.52276082046                1.6755160819145568e-17               1.6755160819145568e-17               0                                    0                                         1                                       1                                    0                                       1                                 0                               0                                      0                                        0                              0                    0                    0                    0                    0                    1.6755160819145561e-17    0                            0                          0                   -0.52470914242196864  0.82465777827508646  0.21123414636181384
                  270407.17297608737                1.6751392315294783e-17              -3.768503850785124e-21               1                                    0                                         1                                       1                                    0                                       2                                 2.6286323862445092e-24             0.023318439461337531                    0.023318439461337531                      0.023318439461337531            0                    0                    0                    0                    0                    1.6751389686662393e-17    1                            1                          0                   -0.52470911707154977  0.82465773843651158  0.21123413616099901
                  178155.05877946952                1.612383402545936e-17              -6.2755828983542229e-19               2                                    0                                         1                                       1                                    0                                       3                                 1.0631567847304245e-19             4.7008236492162849                     4.7008236492162849                       4.7008236492162849             0                    0                    0                    0                    0                    1.6017518346986321e-17    2                            2                          0                   -0.52366608538415593  0.82304559206973704  0.210851419879652  
                  179646.43840201249                1.570577433940846e-17              -4.1805968605089993e-19               3                                    0                                         2                                       2                                    0                                       4                                 2.7530330032536088e-19             6.1238251568680511                     6.1238251568680511                       6.1238251568680511             0                    0                    0                    0                    0                    1.5430471039083098e-17    3                            3                          0                   -0.52062459479024481  0.81934129680711842  0.2096197762901926 
                  189279.53560679324                1.5644888916025294e-17              -6.0885423383166047e-20               4                                    0                                         2                                       2                                    0                                       5                                 3.3670612415338975e-19             6.9819565487321116                     6.9819565487321116                       6.9819565487321116             0                    0                    0                    0                    0                    1.5308182791871904e-17    4                            4                          0                   -0.51972141537146332  0.81818007629935252  0.20928203919460037
                  280413.86044818652                1.5532944329314399e-17              -1.1194458671089505e-19               5                                    1                                         3                                       3                                    0                                       7                                 4.355147082980951e-19             7.2277234865137023                     7.2277234865137023                       7.2277234865137023             0                    0                    0                    0                    0                    1.5097429621016302e-17    5                            5                          0                   -0.51776323068794317  0.81649107314891667  0.20856671590644749
                  262763.47412545671                1.5362706308182952e-17              -1.7023802113144741e-19               6                                    1                                         3                                       4                                    1                                       8                                 6.8553732512495912e-19             8.3201760549533486                     8.3201760549533486                       8.3201760549533486             0                    0                    0                    0                    0                    1.4677168983057997e-17    6                            6                          0                   -0.51237812602256838  0.81181815069300456  0.20675100552020259
                  447454.95622837078                1.5344775548797238e-17              -1.7930759385713484e-20               7                                    1                                         3                                       4                                    1                                       9                                 8.7652168684545e-19             9.165444067137571                      9.165444067137571                        9.165444067137571              0                    0                    0                    0                    0                    1.4468253861951785e-17    7                            7                          0                   -0.50915987860262235  0.8087641365145628   0.20569911060142845
                  422921.39011343266                1.5344392249930943e-17              -3.8329886629509833e-22               7                                    2                                         3                                       4                                    1                                       10                                8.5010743558349511e-19             9.0391826512737232                     9.165444067137571                        9.165444067137571              0                    0                    0                    0                    0                    1.4494284814347448e-17    8                            8                          0                   -0.50958268296871467  0.80917348582388149  0.20583571813405843
                  184773.64411498446                1.5206886944635585e-17              -1.3750530529535805e-19               8                                    2                                         3                                       5                                    2                                       11                                1.1860619264732171e-18             9.5081633440708586                     9.5081633440708586                       9.5081633440708586             0                    0                    0                    0                    0                    1.402082501816237e-17    9                            9                          0                   -0.50012081194841529  0.80096700535272514  0.20312723792603604
                  162889.4908247648                 1.5206573708457385e-17              -3.1323617820013184e-22               8                                    3                                         3                                       5                                    2                                       12                                1.1651457303235823e-18             9.4293021599542488                     9.5081633440708586                       9.5081633440708586             0                    0                    0                    0                    0                    1.4041427978133803e-17    10                           10                         0                   -0.50058609049033953  0.80139352152830912  0.20325835276568197
                  88137.594817767327                1.5178925172693618e-17              -2.7648535763767149e-20               9                                    4                                         3                                       6                                    3                                       14                                1.221824843203835e-18             9.3956192891712451                     9.5081633440708586                       9.5081633440708586             0                    0                    0                    0                    0                    1.3957100329489785e-17    11                           11                         0                   -0.4977450563366887   0.80006241529092359  0.20278885242570729
                  84752.253830913571                1.5168591170699279e-17              -1.0334001994338416e-20               10                                   4                                         3                                       7                                    4                                       15                                1.2380520540328214e-18             9.3316740914437624                     9.5081633440708586                       9.5081633440708586             0                    0                    0                    0                    0                    1.3930539116666457e-17    12                           12                         0                   -0.49555112444823257  0.80029194505397883  0.20278728059821935
                  79650.751229035624                1.5168579280463265e-17              -1.1890236014244618e-23               10                                   5                                         3                                       7                                    4                                       16                                1.2371760441215985e-18             9.3303099521469157                     9.5081633440708586                       9.5081633440708586             0                    0                    0                    0                    0                    1.3931403236341667e-17    13                           13                         0                   -0.49562361000770128  0.80028534990630285  0.20278758223330115
                  58196.001881763223                1.5157627184461953e-17              -1.0952096001311972e-20               11                                   5                                         3                                       8                                    5                                       17                                1.2428933325268567e-18             9.367312181771597                      9.5081633440708586                       9.5081633440708586             0                    0                    0                    0                    0                    1.3914733851935095e-17    14                           14                         0                   -0.49253470802292504  0.8014044037457928   0.20305852254264029
                  108973.02274278684                1.5156580691486361e-17              -1.0464929755925574e-21               12                                   6                                         3                                       8                                    5                                       19                                1.24885524010429e-18             9.6061160957477192                     9.6061160957477192                       9.6061160957477192             0                    0                    0                    0                    0                    1.3907725451382069e-17    15                           15                         0                   -0.49122893771460757  0.80185257119345388  0.20316524904375874
                  154754.41383071794                1.513867803905319e-17              -1.7902652433170486e-20               13                                   6                                         3                                       9                                    6                                       20                                1.2819211893317212e-18             11.090445633411624                     11.090445633411624                       11.090445633411624             0                    0                    0                    0                    0                    1.3856756849721472e-17    16                           16                         0                   -0.47959442522742884  0.80621192169732303  0.20444543344230287
                  116097.01257293727                1.5137375311333422e-17              -1.3027277197684573e-21               13                                   7                                         3                                       9                                    6                                       21                                1.2698197525445661e-18             10.781133534907667                     11.090445633411624                       11.090445633411624             0                    0                    0                    0                    0                    1.386755555878886e-17    17                           17                         0                   -0.48202513371889039  0.80537270372159242  0.20420407374928012
                  221347.68694389789                1.5133240048573137e-17              -4.1352627602842555e-21               14                                   7                                         3                                       10                                   7                                       22                                1.3547056426098883e-18             12.824819224932032                     12.824819224932032                       12.824819224932032             0                    0                    0                    0                    0                    1.3778534405963249e-17    18                           18                         0                   -0.462364131060088    0.81191352864818855  0.20659619837723911
                  86395.405338570403                1.511925328990253e-17              -1.3986758670607484e-20               14                                   8                                         3                                       10                                   7                                       23                                1.2980727898499416e-18             11.673802889674302                     12.824819224932032                       12.824819224932032             0                    0                    0                    0                    0                    1.3821180500052588e-17    19                           19                         0                   -0.47164459616445603  0.80906691756756366  0.20556474020663046
                  100827.61460558015                1.5111944688718727e-17              -7.3086011838029539e-21               15                                   8                                         3                                       11                                   8                                       24                                1.3367275918963864e-18             12.288062656546256                     12.824819224932032                       12.824819224932032             0                    0                    0                    0                    0                    1.3775217096822345e-17    20                           20                         0                   -0.46190058871813433  0.81239961212833178  0.20734284131776318
                  58040.53426968358                 1.5110081632981928e-17              -1.8630557367988582e-21               15                                   9                                         3                                       11                                   8                                       25                                1.32041572064111e-18             12.097158201241095                     12.824819224932032                       12.824819224932032             0                    0                    0                    0                    0                    1.3789665912340817e-17    21                           21                         0                   -0.46494207254382997  0.81139880061655056  0.20680512863234435
                  62751.895057124791                1.5100024349185608e-17              -1.0057283796319699e-20               16                                   9                                         3                                       12                                   9                                       26                                1.3461307414016988e-18             12.222761133884877                     12.824819224932032                       12.824819224932032             0                    0                    0                    0                    0                    1.375389360778391e-17    22                           22                         0                   -0.45737968427926323  0.81406861041421075  0.2087081047156869 
                  103459.65866017276                1.5099250280062228e-17              -7.740691233802346e-22               17                                   10                                        3                                       12                                   9                                       28                                1.358538466716893e-18             12.268428217942697                     12.824819224932032                       12.824819224932032             0                    0                    0                    0                    0                    1.3740711813345333e-17    23                           23                         0                   -0.45460779835210041  0.8150057138973692   0.20938551793618221
                  192149.75928794761                1.508697397481369e-17              -1.2276305248538294e-20               18                                   10                                        3                                       13                                   10                                      29                                1.4605627640710193e-18             12.626329787154164                     12.824819224932032                       12.824819224932032             0                    0                    0                    0                    0                    1.3626411210742674e-17    24                           24                         0                   -0.42965992154196903  0.82293475656281534  0.21610589525415741
                  121812.84937474117                1.5083625835552054e-17              -3.3481392616356687e-21               18                                   11                                        3                                       13                                   10                                      30                                1.4208850329078452e-18             12.492588189004437                     12.824819224932032                       12.824819224932032             0                    0                    0                    0                    0                    1.3662740802644209e-17    25                           25                         0                   -0.43758028557716239  0.82057952665132838  0.21405593324691896
                  238365.73479153909                1.5073343496443646e-17              -1.0282339108407873e-20               19                                   11                                        3                                       14                                   11                                      31                                1.5037090875548639e-18             12.702049712344929                     12.824819224932032                       12.824819224932032             0                    0                    0                    0                    0                    1.3569634408888782e-17    26                           26                         0                   -0.41487836604903705  0.82735330382565742  0.22090428774621851
                  164413.17686592447                1.5070826891176049e-17              -2.5166052675977507e-21               19                                   12                                        3                                       14                                   11                                      32                                1.4726746392347949e-18             12.636640481802988                     12.824819224932032                       12.824819224932032             0                    0                    0                    0                    0                    1.3598152251941252e-17    27                           27                         0                   -0.42187176231914492  0.82538308872298805  0.21885573748758716
                  128024.35218260274                1.5062379769067128e-17              -8.4471221089205e-21               20                                   12                                        3                                       15                                   12                                      33                                1.52935329531019e-18             12.675871103616386                     12.824819224932032                       12.824819224932032             0                    0                    0                    0                    0                    1.3533026473756937e-17    28                           28                         0                   -0.40253161580270785  0.83095557568305733  0.22551736066675387
                  71419.570779441245                1.5060733950706936e-17              -1.6458183601920264e-21               20                                   13                                        3                                       15                                   12                                      34                                1.509164339090554e-18             12.664348262860806                     12.824819224932032                       12.824819224932032             0                    0                    0                    0                    0                    1.3551569611616381e-17    29                           29                         0                   -0.40811142782695875  0.8294224652437997   0.22363452318020868
                  59738.745176638622                1.5053016144644931e-17              -7.7178060620046898e-21               21                                   13                                        3                                       16                                   13                                      35                                1.5259956359935876e-18             12.68877402158269                      12.824819224932032                       12.824819224932032             0                    0                    0                    0                    0                    1.3527020508651344e-17    30                           30                         0                   -0.39698730403661342  0.83274309503120691  0.22836816494094397
                  63475.444866158185                1.5052962303212255e-17              -5.3841432676267855e-23               22                                   14                                        3                                       16                                   13                                      37                                1.528129024274059e-18             12.691026010414195                     12.824819224932032                       12.824819224932032             0                    0                    0                    0                    0                    1.3524833278938196e-17    31                           31                         0                   -0.3959739701661536   0.83303444846731367  0.22879365402311183
                  126518.14588198587                1.5044746448262669e-17              -8.2158549495857684e-21               23                                   14                                        3                                       17                                   14                                      38                                1.544246791086915e-18             12.698906022100749                     12.824819224932032                       12.824819224932032             0                    0                    0                    0                    0                    1.3500499657175755e-17    32                           32                         0                   -0.37784721293001383  0.83834352931513545  0.23747014742307082
                  97901.041033024652                1.5044332552913957e-17              -4.1389534871209733e-22               23                                   15                                        3                                       17                                   14                                      39                                1.5396298681475175e-18             12.696853052045663                     12.824819224932032                       12.824819224932032             0                    0                    0                    0                    0                    1.3504702684766439e-17    33                           33                         0                   -0.38111803604603506  0.83742732251075447  0.23592574498667532
                  133204.81819018102                1.5035226709338316e-17              -9.1058435756413262e-21               24                                   15                                        3                                       18                                   15                                      40                                1.54843873271894e-18             13.471525098570178                     13.471525098570178                       13.471525098570178             0                    0                    0                    0                    0                    1.3486787976619373e-17    34                           34                         0                   -0.35852876946782797  0.84377455239993271  0.24743606042319641
                  102261.44573053886                1.5034584128682757e-17              -6.4258065555933784e-22               24                                   16                                        3                                       18                                   15                                      41                                1.5443645219935438e-18             13.248886570369269                     13.471525098570178                       13.471525098570178             0                    0                    0                    0                    0                    1.3490219606689212e-17    35                           35                         0                   -0.36316995122325696  0.84254037936795312  0.24510606226848972