# ODT 1.0
# Table Start
# Title: mmArchive Data Table, Wed Aug 03 16:58:50 BST 2016
# Columns: {Oxs_CGEvolve::Max mxHxm} {Oxs_CGEvolve::Total energy} {Oxs_CGEvolve::Delta E} {Oxs_CGEvolve::Bracket count} {Oxs_CGEvolve::Line min count} {Oxs_CGEvolve::Conjugate cycle count} {Oxs_CGEvolve::Cycle count} {Oxs_CGEvolve::Cycle sub count} {Oxs_CGEvolve::Energy calc count} Oxs_Demag::Energy    Oxs_MinDriver::Iteration {Oxs_MinDriver::Stage iteration} Oxs_MinDriver::Stage Oxs_MinDriver::mx    Oxs_MinDriver::my    Oxs_MinDriver::mz   
# Units:              A/m                         J                          J                         {}                             {}                                {}                               {}                            {}                               {}                         J                       {}                           {}                         {}                 {}                   {}                   {}           
              69722.935306614832          1.3404128655316452e-19       1.3404128655316452e-19        0                              0                                 1                                1                             0                                1                           1.3404128655316452e-19    0                            0                          0                    1                    0                    0                  
              69627.221175680374          1.3398016071908296e-19      -6.112583408155902e-23        1                              0                                 1                                1                             0                                2                           1.3398016071908296e-19    1                            1                          0                    0.99999961922824954  0                    0                  
              46782.489914478501          1.2371522342685379e-19      -1.0264937292229166e-20        2                              0                                 1                                1                             0                                3                           1.2371522342685379e-19    2                            2                          0                    0.98480775301220824  0                    0                  
              22978.007254858159          1.1852942207421463e-19      -5.1858013526391657e-21        3                              0                                 2                                2                             0                                4                           1.1852942207421463e-19    3                            3                          0                    0.94880739868547892  0                    0                  
              18199.385802638451          1.1795577532005834e-19      -5.736467541562842e-22        4                              0                                 2                                2                             0                                5                           1.1795577532005834e-19    4                            4                          0                    0.93969262078590832  0                    0                  
              3160.595451949293           1.1703517121835113e-19      -9.206041017072103e-22        5                              0                                 3                                3                             0                                6                           1.1703517121835113e-19    5                            5                          0                    0.90703839223787674  0                    0                  
              9.510187779220697           1.170068479423726e-19      -2.8323275978532645e-23        6                              1                                 3                                3                             0                                8                           1.170068479423726e-19    6                            6                          0                    0.89941236542422809  0                    0                  
              8.6788088692164547e-06         1.1700684768601293e-19      -2.5635966822890999e-28        6                              3                                 3                                3                             0                                10                          1.1700684768601293e-19    7                            7                          0                    0.89938892329263287  0                    0                  
# Table End
