# OOMMF OVF 2.0
#
# Segment count: 1
#
# Begin: Segment
# Begin: Header
#
# Title: Oxs_MinDriver::Magnetization
# Desc: Oxs vector field output
# Desc:  MIF source file: /home/ryan/Git/joommf/tools/omfvis/cube_example.mif
# Desc:  Iteration: 2561, State id: 5266
# Desc:  Stage: 4, Stage iteration: 841
# Desc:  Stage simulation time: 0 s
# Desc:  Total simulation time: -2 s
# meshunit: m
# meshtype: rectangular
# xbase: 2.5000000000000001e-09
# ybase: 2.5000000000000001e-09
# zbase: 2.5000000000000001e-09
# xnodes: 10
# ynodes: 10
# znodes: 10
# xstepsize: 5.0000000000000001e-09
# ystepsize: 5.0000000000000001e-09
# zstepsize: 5.0000000000000001e-09
# xmin: 0
# ymin: 0
# zmin: 0
# xmax: 4.9999999999999998e-08
# ymax: 4.9999999999999998e-08
# zmax: 4.9999999999999998e-08
# valuedim: 3
# valuelabels: Magnetization_x Magnetization_y Magnetization_z
# valueunits: A/m A/m A/m
#
# End: Header
#
# Begin: Data Text
 669109.88 -293385.89 325909.02
 710976.47 -237354.96 279598.08
 746341.84 -144534.48 249165.89
 761768.65 -28285.385 242710.64
 751436.93 103734.12 254129.44
 710855.76 244257.20 273902.38
 637317.31 383336.56 294753.67
 531955.94 509341.00 312401.37
 405667.92 609007.36 323331.98
 293385.66 669110.35 325908.26
 609006.83 -405668.22 323332.62
 662954.85 -339835.94 291551.73
 714341.58 -229990.28 277165.25
 742748.15 -86058.444 284462.87
 735775.98 84522.648 302472.53
 685214.63 266178.46 315642.11
 592670.21 434636.01 315964.50
 470443.07 570161.50 305939.84
 339835.59 662955.35 291550.99
 237354.72 710976.87 279597.26
 509340.37 -531956.27 312401.85
 570160.82 -470443.50 305940.44
 637569.53 -355890.20 326874.99
 683745.75 -185119.36 371782.95
 682548.16 40797.485 415287.33
 615512.19 288340.24 421905.97
 494986.29 497648.86 383841.35
 355889.68 637570.22 326874.21
 229989.92 714342.03 277164.39
 144534.28 746342.18 249165.00
 383335.83 -637317.61 294753.97
 434635.14 -592670.63 315964.91
 497647.81 -494986.88 383841.95
 545910.62 -317565.23 491053.89
 541902.03 -37190.062 587332.18
 455648.00 292039.60 589150.04
 317564.55 545911.82 491052.99
 185118.87 683746.43 371781.95
 86058.169 742748.56 284461.90
 28285.275 761768.95 242709.72
 244256.40 -710855.99 273902.50
 266177.44 -685214.95 315642.27
 288338.87 -615512.67 421906.21
 292037.80 -455648.64 589150.43
 248854.45 -147897.40 745786.71
 147896.73 248856.60 745786.13
 37189.540 541903.35 587331.00
 -40797.760 682548.85 415286.17
 -84522.733 735776.38 302471.53
 -103734.09 751437.25 254128.52
 103733.33 -751437.06 254129.37
 84521.622 -735776.14 302472.43
 40796.090 -682548.37 415287.13
 -37191.891 -541902.34 587331.78
 -147899.56 -248854.95 745786.12
 -248857.08 147898.90 745785.54
 -292039.76 455649.39 589148.89
 -288340.21 615512.97 421904.86
 -266178.33 685215.12 315641.15
 -244257.01 710856.16 273901.50
 -28286.138 -761768.69 242710.44
 -86059.356 -742748.15 284462.59
 -185120.49 -683745.71 371782.48
 -317566.52 -545910.61 491053.07
 -455649.99 -292038.02 589149.29
 -541903.62 37191.356 587330.63
 -545911.77 317565.88 491052.19
 -497648.65 494987.17 383840.49
 -434635.73 592670.85 315963.67
 -383336.27 637317.86 294752.85
 -144535.20 -746341.80 249165.60
 -229991.06 -714341.47 277164.88
 -355891.03 -637569.35 326874.43
 -494987.67 -497647.67 383841.11
 -615513.38 -288338.92 421905.14
 -682549.02 -40796.410 415286.03
 -683746.36 185120.02 371781.50
 -637570.01 355890.60 326873.62
 -570161.21 470443.85 305939.18
 -509340.68 531956.67 312400.66
 -237355.66 -710976.36 279597.75
 -339836.63 -662954.67 291551.32
 -470444.13 -570160.60 305939.87
 -592671.16 -434634.96 315964.16
 -685215.37 -266177.41 315641.38
 -735776.50 -84521.761 302471.50
 -742748.54 86059.092 284461.67
 -714341.91 229990.78 277163.99
 -662955.15 339836.43 291550.46
 -609007.11 405668.78 323331.37
 -293386.63 -669109.72 325908.67
 -405668.89 -609006.61 323332.19
 -531956.82 -509340.13 312401.29
 -637318.04 -383335.65 294753.28
 -710856.32 -244256.32 273901.71
 -751437.34 -103733.35 254128.54
 -761768.97 28286.024 242709.56
 -746342.13 144535.05 249164.69
 -710976.77 237355.56 279596.80
 -669110.21 293386.58 325907.71
 643489.61 -325233.69 346618.18
 689943.01 -265734.22 305555.18
 731310.30 -172668.63 274537.41
 752638.84 -59388.704 264589.79
 749367.15 67882.932 271736.61
 717852.80 204267.96 288031.17
 654467.77 342388.96 307313.76
 557924.57 471796.86 325772.76
 436506.53 577953.97 339751.76
 325233.54 643490.19 346617.25
 577953.36 -436506.71 339752.56
 636388.03 -366433.57 317390.48
 692978.43 -256358.87 306693.71
 726546.56 -116061.64 314101.55
 726922.89 48587.692 330488.05
 687065.31 225522.26 342170.98
 606201.24 394444.99 341954.99
 492784.64 535779.96 331817.91
 366433.32 636388.61 317389.60
 265734.04 689943.51 305554.20
 471796.19 -557924.78 325773.39
 535779.24 -492784.94 331818.64
 605762.81 -377909.12 360882.41
 654349.32 -211146.03 408955.16
 660294.51 5777.8749 451638.99
 608675.54 244913.13 457746.26
 505700.07 455895.71 420031.59
 377908.74 605763.57 360881.53
 256358.58 692978.96 306692.73
 172668.46 731310.72 274536.40
 342388.23 -654467.94 307314.19
 394444.12 -606201.51 341955.50
 455894.65 -505700.47 420032.27
 501762.43 -329290.35 528963.44
 503658.99 -62375.579 618414.83
 440610.34 247573.31 620137.07
 329289.91 501763.67 528962.55
 211145.67 654350.10 408954.10
 116061.41 726547.05 314100.50
 59388.602 752639.21 264588.76
 204267.22 -717852.92 288031.40
 225521.30 -687065.49 342171.24
 244911.84 -608675.83 457746.58
 247571.66 -440610.71 620137.47
 216400.78 -146233.44 756165.65
 146233.09 216402.71 756165.16
 62375.275 503660.34 618413.76
 -5778.0620 660295.30 451637.83
 -48587.765 726923.37 330486.98
 -67882.920 749367.52 271735.60
 67882.210 -749367.20 271736.65
 48586.756 -726922.95 330488.06
 5776.6012 -660294.59 451638.89
 -62377.231 -503659.13 618414.55
 -146235.36 -216401.03 756165.20
 -216402.92 146235.02 756164.73
 -247573.36 440611.71 620136.07
 -244913.08 608676.38 457745.18
 -225522.14 687065.85 342169.97
 -204267.82 717853.23 288030.21
 -59389.377 -752638.82 264589.69
 -116062.46 -726546.51 314101.37
 -211147.07 -654349.23 408954.77
 -329291.57 -501762.38 528962.74
 -440612.01 -247571.76 620136.50
 -503660.43 62376.909 618413.53
 -501763.55 329291.18 528961.86
 -455895.49 505700.96 420030.76
 -394444.74 606201.88 341954.13
 -342388.69 654468.31 307312.89
 -172669.27 -731310.23 274537.21
 -256359.58 -692978.30 306693.40
 -377909.90 -605762.63 360881.89
 -505701.25 -455894.51 420031.47
 -608676.58 -244911.86 457745.56
 -660295.33 -5776.8228 451637.81
 -654349.97 211146.75 408953.75
 -605763.35 377909.62 360880.98
 -535779.68 492785.40 331817.24
 -471796.55 557925.27 325772.02
 -265734.86 -689942.89 305554.90
 -366434.21 -636387.85 317390.09
 -492785.54 -535779.03 331818.08
 -606202.04 -394443.97 341954.74
 -687065.95 -225521.27 342170.34
 -726923.38 -48586.871 330487.09
 -726546.97 116062.27 314100.37
 -692978.81 256359.40 306692.40
 -636388.40 366434.12 317389.09
 -577953.72 436507.35 339751.14
 -325234.38 -643489.44 346617.86
 -436507.34 -577953.14 339752.14
 -557925.29 -471795.97 325772.82
 -654468.36 -342388.08 307313.47
 -717853.27 -204267.16 288030.57
 -749367.52 -67882.244 271735.76
 -752639.17 59389.288 264588.73
 -731310.64 172669.18 274536.17
 -689943.38 265734.84 305553.80
 -643490.03 325234.43 346616.72
 606148.92 -370530.11 367819.15
 659764.30 -306601.37 332726.12
 709538.58 -210661.74 303606.05
 738666.23 -97640.622 291270.51
 743607.66 26436.422 293851.61
 722144.84 158463.33 305607.92
 670790.72 293803.74 322054.61
 586746.35 424135.43 340349.62
 475708.26 535030.76 356992.62
 370530.12 606149.61 367818.00
 535030.08 -475708.27 356993.63
 598737.56 -403501.78 344528.15
 662686.01 -292061.59 339922.46
 703829.41 -153332.24 348013.48
 713489.59 6271.4395 361791.75
 686409.56 177315.05 370676.79
 620631.84 344323.86 369130.33
 520856.22 489888.01 358773.65
 403501.70 598738.22 344527.10
 306601.32 659764.91 332724.96
 424134.76 -586746.36 340350.43
 489887.27 -520856.31 358774.52
 563595.43 -405304.27 397603.63
 617101.43 -241028.26 448431.94
 632516.43 -32754.058 488722.96
 598363.23 195907.09 493540.13
 516609.69 405140.68 457138.34
 405304.10 563596.24 397602.65
 292061.46 662686.64 339921.36
 210661.67 709539.10 303604.89
 293803.07 -670790.73 322055.21
 344323.04 -620631.91 369130.98
 405139.67 -516609.81 457139.09
 452103.86 -340387.52 565454.19
 463232.01 -86921.670 646421.48
 423560.02 202387.73 647793.27
 340387.39 452105.04 565453.32
 241028.11 617102.27 448430.86
 153332.13 703830.00 348012.35
 97640.577 738666.69 291269.37
 158462.69 -722144.81 305608.32
 177314.21 -686409.56 370677.19
 195905.95 -598363.26 493540.55
 202386.29 -423560.06 647793.69
 186368.04 -144207.78 764507.08
 144207.79 186369.69 764506.67
 86921.651 463233.29 646420.56
 32754.035 632517.29 488721.86
 -6271.4366 713490.16 361790.63
 -26436.400 743608.09 293850.53
 26435.808 -743607.60 293851.81
 6270.6305 -713489.52 361791.90
 -32755.161 -632516.34 488723.01
 -86923.080 -463231.91 646421.36
 -144209.38 -186367.98 764506.79
 -186369.59 144209.42 764506.39
 -202387.58 423561.31 647792.47
 -195906.93 598364.10 493539.14
 -177314.90 686410.15 370675.78
 -158463.19 722145.30 305606.92
 -97641.204 -738666.14 291270.54
 -153332.95 -703829.28 348013.43
 -241029.18 -617101.25 448431.69
 -340388.62 -452103.68 565453.67
 -423561.26 -202386.20 647792.93
 -463233.13 86923.054 646420.49
 -452104.79 340388.57 565452.81
 -405140.40 516610.56 457137.60
 -344323.58 620632.50 369129.49
 -293803.48 670791.26 322053.73
 -210662.30 -709538.46 303605.95
 -292062.22 -662685.84 339922.25
 -405304.98 -563595.21 397603.21
 -516610.57 -405139.47 457138.41
 -598364.03 -195905.86 493539.65
 -632517.12 32755.123 488722.00
 -617102.03 241029.10 448430.67
 -563595.94 405304.94 397602.21
 -489887.70 520856.94 358773.03
 -424135.11 586746.99 340348.89
 -306601.92 -659764.14 332725.93
 -403502.35 -598737.35 344527.84
 -520856.88 -489887.05 358774.02
 -620632.43 -344322.85 369130.27
 -686410.06 -177314.12 370676.32
 -713490.02 -6270.6429 361790.92
 -703829.81 153332.91 348012.39
 -662686.41 292062.21 339921.15
 -598737.96 403502.44 344526.69
 -535030.46 475709.02 356992.06
 -370530.71 -606148.70 367818.89
 -475708.82 -535029.85 356993.25
 -586746.83 -424134.54 340349.89
 -670791.13 -293802.91 322054.51
 -722145.18 -158462.60 305607.49
 -743607.97 -26435.795 293850.88
 -738666.55 97641.196 291269.51
 -709538.94 210662.32 303604.81
 -659764.71 306602.04 332724.68
 -606149.37 370530.94 367817.58
 562330.16 -419359.45 384606.86
 625207.90 -350887.86 354954.63
 685115.07 -250437.49 328478.93
 723040.68 -135105.15 314577.13
 736161.98 -11904.988 312927.79
 723888.07 116691.52 319951.80
 683811.05 248042.77 332982.33
 612931.60 376149.53 350465.95
 515049.43 488058.52 369490.13
 419359.68 562330.91 384605.53
 488057.84 -515049.23 369491.32
 558001.72 -441978.59 365087.67
 630755.05 -328537.54 366348.40
 680826.10 -189026.93 375159.49
 699975.65 -31897.488 386026.74
 684625.22 134254.32 391489.57
 633069.82 297617.71 388131.82
 547843.91 443928.13 377882.08
 441978.71 558002.40 365086.48
 350887.99 625208.57 354953.32
 376148.92 -612931.42 350466.92
 443927.44 -547843.78 377883.08
 522704.18 -431858.56 424592.20
 583220.91 -268378.00 477311.86
 608705.12 -65677.041 514941.36
 589786.66 154489.87 517961.94
 526707.89 359879.05 482768.96
 431858.65 522704.95 424591.15
 328537.61 630755.71 366347.21
 250437.55 685115.65 328477.66
 248042.20 -683810.88 332983.10
 297617.01 -633069.66 388132.60
 359878.16 -526707.74 482769.79
 411348.66 -350602.16 589805.39
 432713.51 -106595.23 664376.76
 411555.58 167580.35 665235.92
 350602.35 411349.71 589804.55
 268378.10 583221.74 477310.80
 189026.99 680826.72 375158.33
 135105.21 723041.19 314575.93
 116690.99 -723887.90 319952.36
 134253.62 -684625.04 391490.13
 154488.93 -589786.44 517962.47
 167579.17 -411555.30 665236.39
 165350.27 -143604.02 769439.52
 143604.37 165351.60 769439.17
 106595.51 432714.64 664375.98
 65677.235 608705.96 514940.34
 31897.619 699976.25 386025.64
 11905.097 736162.45 312926.70
 -11905.487 -736161.82 312928.16
 -31898.145 -699975.44 386027.06
 -65677.935 -608704.84 514941.57
 -106596.37 -432713.16 664376.80
 -143605.32 -165349.90 769439.36
 -165351.19 143605.69 769439.01
 -167579.96 411556.70 665235.32
 -154489.55 589787.49 517961.09
 -134254.07 684625.82 391488.62
 -116691.33 723888.53 319950.83
 -135105.62 -723040.51 314577.32
 -189027.53 -680825.87 375159.60
 -268378.77 -583220.62 477311.79
 -350603.10 -411348.32 589805.08
 -411556.34 -167578.84 665235.84
 -432714.21 106596.66 664376.07
 -411349.27 350603.37 589804.25
 -359878.65 526708.69 482768.38
 -297617.37 633070.44 388131.07
 -248042.48 683811.55 332981.52
 -250437.95 -685114.88 328478.96
 -328538.08 -630754.81 366348.34
 -431859.18 -522703.88 424591.92
 -526708.42 -359877.86 482769.27
 -589787.16 -154488.67 517961.73
 -608705.58 65678.142 514940.67
 -583221.34 268378.96 477310.80
 -522704.56 431859.40 424590.86
 -443927.75 547844.57 377881.57
 -376149.17 612932.18 350465.32
 -350888.34 -625207.68 354954.55
 -441979.08 -558001.47 365087.46
 -547844.28 -443927.17 377882.68
 -633070.15 -297616.76 388131.99
 -684625.53 -134253.44 391489.34
 -699975.95 31898.290 386026.13
 -680826.41 189027.67 375158.55
 -630755.37 328538.28 366347.19
 -558002.05 441979.38 365086.21
 -488058.15 515050.10 369489.70
 -419359.96 -562329.90 384606.69
 -515049.69 -488057.57 369491.03
 -612931.83 -376148.67 350466.47
 -683811.26 -248042.01 332982.48
 -723888.27 -116690.85 319951.59
 -736162.21 11905.601 312927.25
 -723040.94 135105.75 314576.27
 -685115.39 250438.13 328477.77
 -625208.27 350888.64 354953.20
 -562330.56 419360.40 384605.25
 515684.88 -467945.09 393822.92
 589156.58 -395689.67 369221.08
 660651.94 -290279.01 345365.18
 708342.64 -170971.91 330180.72
 729714.23 -46520.364 324581.26
 725736.97 80219.986 326910.70
 695562.91 207608.85 336289.77
 636935.18 331563.65 352674.24
 552630.45 441220.88 374063.79
 467945.51 515685.61 393821.47
 441220.27 -552630.06 374065.09
 518099.12 -479812.54 375969.71
 600910.41 -364547.09 382115.29
 661139.61 -222743.77 391509.43
 689971.85 -65438.558 399570.58
 685030.25 98021.291 401404.26
 645667.51 257691.66 395864.21
 573792.66 402217.33 385983.43
 479812.86 518099.76 375968.43
 395689.98 589157.25 369219.68
 331563.14 -636934.83 352675.35
 402216.74 -573792.33 385984.53
 487661.96 -458275.51 438371.27
 557177.85 -294571.83 492727.39
 593273.28 -93851.106 528411.57
 587264.50 121741.39 529433.13
 539091.37 323693.13 494573.81
 458275.83 487662.62 438370.19
 364547.36 600911.03 382114.07
 290279.24 660652.52 345363.88
 207608.42 -695562.60 336290.67
 257691.12 -645667.18 395865.11
 323692.43 -539090.98 494574.69
 382396.00 -363312.59 601479.23
 414546.07 -123808.41 672921.27
 407962.47 142666.18 673210.95
 363313.07 382396.83 601478.41
 294572.18 557178.57 492726.37
 222744.02 661140.19 391508.30
 170972.10 708343.15 330179.54
 80219.600 -725736.69 326911.41
 98020.776 -685029.91 401404.97
 121740.69 -587264.06 529433.78
 142665.29 -407961.91 673211.48
 152541.58 -145893.25 771651.62
 145893.92 152542.59 771651.30
 123808.98 414546.99 672920.60
 93851.529 593274.02 528410.66
 65438.850 689972.40 399569.57
 46520.578 729714.68 324580.22
 -46520.730 -729713.97 324581.79
 -65439.048 -689971.51 399571.07
 -93851.777 -593272.83 528411.96
 -123809.27 -414545.49 672921.46
 -145894.23 -152540.91 771651.57
 -152541.88 145894.93 771651.25
 -142665.55 407963.38 673210.53
 -121740.89 587265.23 529432.44
 -98020.918 685030.79 401403.43
 -80219.708 725737.40 326909.82
 -170972.27 -708342.39 330181.07
 -222744.23 -661139.28 391509.72
 -294572.43 -557177.42 492727.52
 -363313.33 -382395.47 601479.12
 -407962.73 -142664.70 673211.11
 -414546.31 123809.87 672920.85
 -382396.19 363313.90 601478.31
 -323692.58 539092.07 494573.41
 -257691.21 645668.07 395863.60
 -207608.49 695563.35 336289.07
 -290279.39 -660651.68 345365.36
 -364547.53 -600910.09 382115.38
 -458276.01 -487661.57 438371.17
 -539091.55 -323691.99 494574.36
 -587264.67 -121740.24 529433.21
 -593273.45 93852.225 528411.18
 -557178.02 294572.88 492726.57
 -487662.10 458276.48 438370.09
 -402216.85 573793.23 385983.09
 -331563.22 636935.67 352673.76
 -395690.07 -589156.29 369221.12
 -479812.95 -518098.80 375969.64
 -573792.73 -402216.40 385984.28
 -645667.59 -257690.78 395864.65
 -685030.34 -98020.455 401404.31
 -689971.97 65439.364 399570.24
 -661139.75 222744.58 391508.73
 -600910.58 364547.93 382114.23
 -518099.29 479813.44 375968.34
 -441220.41 552631.01 374063.52
 -467945.50 -515684.55 393822.87
 -552630.43 -441219.95 374064.93
 -636935.17 -331562.85 352675.02
 -695562.92 -207608.16 336290.17
 -725737.02 -80219.368 326910.74
 -729714.33 46520.962 324580.96
 -708342.79 170972.55 330180.07
 -660652.14 290279.75 345364.18
 -589156.82 395690.55 369219.75
 -515685.13 467946.12 393821.37
 467945.50 -515684.55 393822.87
 552630.43 -441219.95 374064.93
 636935.17 -331562.85 352675.02
 695562.92 -207608.16 336290.17
 725737.02 -80219.368 326910.74
 729714.33 46520.963 324580.96
 708342.79 170972.55 330180.07
 660652.14 290279.75 345364.18
 589156.82 395690.55 369219.75
 515685.13 467946.12 393821.37
 395690.07 -589156.29 369221.12
 479812.95 -518098.80 375969.64
 573792.73 -402216.40 385984.28
 645667.59 -257690.78 395864.65
 685030.34 -98020.455 401404.31
 689971.97 65439.363 399570.24
 661139.75 222744.58 391508.72
 600910.58 364547.93 382114.23
 518099.29 479813.44 375968.34
 441220.41 552631.01 374063.52
 290279.39 -660651.68 345365.36
 364547.53 -600910.09 382115.38
 458276.01 -487661.57 438371.17
 539091.55 -323691.99 494574.36
 587264.67 -121740.24 529433.21
 593273.45 93852.226 528411.17
 557178.01 294572.88 492726.57
 487662.10 458276.49 438370.09
 402216.85 573793.22 385983.09
 331563.22 636935.67 352673.76
 170972.27 -708342.39 330181.07
 222744.23 -661139.28 391509.72
 294572.43 -557177.42 492727.52
 363313.33 -382395.46 601479.12
 407962.73 -142664.70 673211.11
 414546.31 123809.86 672920.85
 382396.20 363313.90 601478.31
 323692.58 539092.07 494573.41
 257691.21 645668.07 395863.60
 207608.49 695563.35 336289.07
 46520.729 -729713.97 324581.79
 65439.050 -689971.51 399571.07
 93851.775 -593272.83 528411.96
 123809.27 -414545.50 672921.46
 145894.23 -152540.91 771651.57
 152541.88 145894.93 771651.25
 142665.55 407963.38 673210.53
 121740.89 587265.23 529432.44
 98020.918 685030.79 401403.43
 80219.708 725737.40 326909.82
 -80219.599 -725736.69 326911.41
 -98020.777 -685029.91 401404.97
 -121740.69 -587264.06 529433.78
 -142665.29 -407961.91 673211.48
 -152541.58 -145893.25 771651.62
 -145893.92 152542.59 771651.30
 -123808.98 414546.99 672920.60
 -93851.529 593274.02 528410.66
 -65438.850 689972.40 399569.57
 -46520.577 729714.68 324580.22
 -207608.42 -695562.60 336290.67
 -257691.11 -645667.18 395865.11
 -323692.43 -539090.98 494574.69
 -382396.00 -363312.59 601479.23
 -414546.07 -123808.41 672921.27
 -407962.47 142666.18 673210.95
 -363313.07 382396.83 601478.41
 -294572.18 557178.57 492726.37
 -222744.02 661140.19 391508.30
 -170972.10 708343.14 330179.54
 -331563.14 -636934.83 352675.35
 -402216.74 -573792.33 385984.53
 -487661.96 -458275.51 438371.27
 -557177.85 -294571.83 492727.39
 -593273.28 -93851.107 528411.57
 -587264.50 121741.39 529433.13
 -539091.37 323693.13 494573.81
 -458275.83 487662.63 438370.19
 -364547.36 600911.03 382114.07
 -290279.24 660652.52 345363.88
 -441220.27 -552630.06 374065.09
 -518099.12 -479812.54 375969.71
 -600910.41 -364547.09 382115.29
 -661139.61 -222743.77 391509.43
 -689971.85 -65438.557 399570.58
 -685030.25 98021.290 401404.26
 -645667.52 257691.66 395864.21
 -573792.66 402217.32 385983.43
 -479812.86 518099.76 375968.43
 -395689.98 589157.25 369219.68
 -515684.88 -467945.09 393822.92
 -589156.58 -395689.67 369221.08
 -660651.94 -290279.01 345365.18
 -708342.64 -170971.91 330180.72
 -729714.23 -46520.364 324581.26
 -725736.97 80219.987 326910.70
 -695562.91 207608.85 336289.77
 -636935.18 331563.65 352674.24
 -552630.45 441220.88 374063.79
 -467945.51 515685.61 393821.47
 419359.96 -562329.90 384606.69
 515049.69 -488057.57 369491.03
 612931.83 -376148.67 350466.47
 683811.26 -248042.01 332982.48
 723888.27 -116690.85 319951.59
 736162.21 11905.600 312927.25
 723040.95 135105.75 314576.27
 685115.39 250438.13 328477.77
 625208.27 350888.64 354953.20
 562330.56 419360.40 384605.25
 350888.34 -625207.68 354954.55
 441979.08 -558001.47 365087.46
 547844.27 -443927.17 377882.68
 633070.15 -297616.76 388131.99
 684625.53 -134253.44 391489.34
 699975.95 31898.291 386026.13
 680826.41 189027.67 375158.55
 630755.37 328538.28 366347.18
 558002.05 441979.38 365086.21
 488058.15 515050.10 369489.70
 250437.95 -685114.88 328478.96
 328538.08 -630754.81 366348.34
 431859.18 -522703.88 424591.92
 526708.42 -359877.86 482769.27
 589787.16 -154488.67 517961.73
 608705.58 65678.141 514940.67
 583221.34 268378.96 477310.80
 522704.56 431859.40 424590.87
 443927.76 547844.57 377881.57
 376149.17 612932.18 350465.32
 135105.62 -723040.51 314577.32
 189027.53 -680825.87 375159.60
 268378.77 -583220.62 477311.80
 350603.10 -411348.32 589805.08
 411556.34 -167578.83 665235.84
 432714.21 106596.66 664376.07
 411349.27 350603.37 589804.25
 359878.65 526708.69 482768.38
 297617.37 633070.44 388131.07
 248042.48 683811.55 332981.52
 11905.488 -736161.82 312928.16
 31898.144 -699975.44 386027.06
 65677.936 -608704.84 514941.57
 106596.37 -432713.16 664376.80
 143605.31 -165349.90 769439.36
 165351.19 143605.69 769439.01
 167579.96 411556.70 665235.32
 154489.55 589787.49 517961.09
 134254.07 684625.82 391488.61
 116691.33 723888.53 319950.83
 -116690.99 -723887.90 319952.36
 -134253.62 -684625.04 391490.13
 -154488.94 -589786.44 517962.47
 -167579.17 -411555.31 665236.39
 -165350.27 -143604.02 769439.52
 -143604.37 165351.60 769439.17
 -106595.51 432714.63 664375.98
 -65677.235 608705.96 514940.34
 -31897.619 699976.25 386025.64
 -11905.097 736162.45 312926.70
 -248042.20 -683810.88 332983.10
 -297617.01 -633069.66 388132.60
 -359878.16 -526707.74 482769.79
 -411348.66 -350602.16 589805.39
 -432713.51 -106595.23 664376.76
 -411555.58 167580.35 665235.92
 -350602.35 411349.71 589804.55
 -268378.10 583221.74 477310.80
 -189026.99 680826.72 375158.33
 -135105.21 723041.19 314575.93
 -376148.92 -612931.42 350466.92
 -443927.44 -547843.78 377883.08
 -522704.18 -431858.56 424592.20
 -583220.91 -268378.00 477311.86
 -608705.12 -65677.041 514941.36
 -589786.66 154489.87 517961.94
 -526707.89 359879.05 482768.96
 -431858.64 522704.95 424591.15
 -328537.60 630755.71 366347.21
 -250437.55 685115.65 328477.66
 -488057.84 -515049.23 369491.32
 -558001.72 -441978.59 365087.67
 -630755.05 -328537.54 366348.40
 -680826.10 -189026.93 375159.49
 -699975.65 -31897.489 386026.74
 -684625.22 134254.32 391489.57
 -633069.82 297617.71 388131.82
 -547843.91 443928.13 377882.08
 -441978.71 558002.40 365086.48
 -350887.99 625208.57 354953.32
 -562330.16 -419359.46 384606.86
 -625207.90 -350887.86 354954.63
 -685115.07 -250437.49 328478.93
 -723040.68 -135105.15 314577.12
 -736161.98 -11904.988 312927.79
 -723888.07 116691.52 319951.80
 -683811.05 248042.77 332982.33
 -612931.60 376149.53 350465.95
 -515049.43 488058.52 369490.13
 -419359.68 562330.91 384605.53
 370530.71 -606148.70 367818.89
 475708.82 -535029.85 356993.25
 586746.83 -424134.54 340349.89
 670791.13 -293802.91 322054.51
 722145.18 -158462.60 305607.49
 743607.97 -26435.794 293850.88
 738666.55 97641.196 291269.51
 709538.94 210662.32 303604.81
 659764.71 306602.04 332724.68
 606149.37 370530.94 367817.58
 306601.92 -659764.14 332725.93
 403502.35 -598737.36 344527.84
 520856.88 -489887.04 358774.02
 620632.43 -344322.86 369130.27
 686410.06 -177314.12 370676.32
 713490.02 -6270.6433 361790.93
 703829.81 153332.91 348012.39
 662686.41 292062.21 339921.15
 598737.96 403502.44 344526.69
 535030.46 475709.02 356992.06
 210662.30 -709538.46 303605.95
 292062.22 -662685.84 339922.25
 405304.98 -563595.21 397603.21
 516610.57 -405139.47 457138.41
 598364.03 -195905.86 493539.65
 632517.12 32755.123 488722.00
 617102.03 241029.10 448430.67
 563595.95 405304.94 397602.21
 489887.70 520856.94 358773.03
 424135.11 586746.99 340348.90
 97641.204 -738666.14 291270.54
 153332.95 -703829.28 348013.43
 241029.18 -617101.25 448431.69
 340388.62 -452103.68 565453.67
 423561.26 -202386.20 647792.93
 463233.13 86923.054 646420.49
 452104.79 340388.57 565452.81
 405140.40 516610.56 457137.60
 344323.58 620632.50 369129.49
 293803.48 670791.26 322053.73
 -26435.808 -743607.60 293851.81
 -6270.6298 -713489.52 361791.90
 32755.160 -632516.34 488723.01
 86923.080 -463231.92 646421.36
 144209.39 -186367.98 764506.79
 186369.59 144209.42 764506.39
 202387.58 423561.31 647792.47
 195906.93 598364.10 493539.14
 177314.90 686410.15 370675.78
 158463.19 722145.30 305606.92
 -158462.69 -722144.81 305608.32
 -177314.21 -686409.56 370677.19
 -195905.95 -598363.26 493540.55
 -202386.29 -423560.06 647793.69
 -186368.05 -144207.78 764507.08
 -144207.79 186369.69 764506.67
 -86921.651 463233.30 646420.56
 -32754.035 632517.29 488721.86
 6271.4373 713490.16 361790.63
 26436.400 743608.09 293850.53
 -293803.07 -670790.73 322055.21
 -344323.04 -620631.91 369130.98
 -405139.67 -516609.81 457139.09
 -452103.86 -340387.52 565454.19
 -463232.01 -86921.669 646421.48
 -423560.02 202387.73 647793.27
 -340387.40 452105.04 565453.32
 -241028.11 617102.28 448430.85
 -153332.13 703830.00 348012.35
 -97640.577 738666.69 291269.37
 -424134.76 -586746.36 340350.43
 -489887.27 -520856.32 358774.52
 -563595.43 -405304.27 397603.63
 -617101.43 -241028.26 448431.94
 -632516.43 -32754.059 488722.96
 -598363.23 195907.09 493540.13
 -516609.68 405140.69 457138.34
 -405304.11 563596.23 397602.65
 -292061.46 662686.64 339921.35
 -210661.67 709539.10 303604.89
 -535030.08 -475708.27 356993.63
 -598737.56 -403501.78 344528.15
 -662686.01 -292061.59 339922.46
 -703829.41 -153332.24 348013.48
 -713489.59 6271.4396 361791.75
 -686409.56 177315.05 370676.79
 -620631.84 344323.85 369130.33
 -520856.22 489888.01 358773.65
 -403501.70 598738.22 344527.10
 -306601.32 659764.91 332724.96
 -606148.92 -370530.11 367819.15
 -659764.30 -306601.37 332726.12
 -709538.58 -210661.74 303606.05
 -738666.23 -97640.622 291270.51
 -743607.66 26436.422 293851.61
 -722144.84 158463.33 305607.92
 -670790.72 293803.74 322054.61
 -586746.35 424135.43 340349.62
 -475708.26 535030.76 356992.62
 -370530.12 606149.61 367818.00
 325234.38 -643489.44 346617.86
 436507.34 -577953.14 339752.14
 557925.29 -471795.97 325772.82
 654468.36 -342388.08 307313.46
 717853.27 -204267.16 288030.57
 749367.52 -67882.244 271735.76
 752639.17 59389.288 264588.73
 731310.64 172669.18 274536.17
 689943.38 265734.84 305553.80
 643490.03 325234.43 346616.72
 265734.86 -689942.89 305554.90
 366434.22 -636387.85 317390.09
 492785.54 -535779.03 331818.08
 606202.04 -394443.96 341954.74
 687065.95 -225521.27 342170.34
 726923.38 -48586.872 330487.09
 726546.97 116062.27 314100.37
 692978.81 256359.40 306692.40
 636388.40 366434.12 317389.09
 577953.72 436507.35 339751.14
 172669.27 -731310.23 274537.21
 256359.58 -692978.30 306693.40
 377909.90 -605762.63 360881.89
 505701.25 -455894.51 420031.47
 608676.58 -244911.86 457745.56
 660295.33 -5776.8224 451637.81
 654349.97 211146.75 408953.75
 605763.35 377909.62 360880.98
 535779.68 492785.40 331817.24
 471796.55 557925.27 325772.02
 59389.377 -752638.82 264589.69
 116062.46 -726546.51 314101.37
 211147.07 -654349.23 408954.77
 329291.57 -501762.38 528962.74
 440612.01 -247571.76 620136.50
 503660.43 62376.908 618413.53
 501763.55 329291.18 528961.86
 455895.49 505700.96 420030.76
 394444.73 606201.89 341954.13
 342388.70 654468.31 307312.89
 -67882.210 -749367.20 271736.65
 -48586.756 -726922.95 330488.06
 -5776.6014 -660294.59 451638.89
 62377.232 -503659.13 618414.55
 146235.36 -216401.03 756165.20
 216402.92 146235.02 756164.73
 247573.36 440611.71 620136.07
 244913.07 608676.38 457745.18
 225522.14 687065.85 342169.97
 204267.82 717853.23 288030.21
 -204267.22 -717852.92 288031.40
 -225521.30 -687065.49 342171.24
 -244911.84 -608675.82 457746.58
 -247571.66 -440610.71 620137.47
 -216400.78 -146233.44 756165.65
 -146233.09 216402.71 756165.16
 -62375.274 503660.34 618413.76
 5778.0629 660295.30 451637.83
 48587.764 726923.37 330486.98
 67882.921 749367.52 271735.60
 -342388.23 -654467.94 307314.19
 -394444.12 -606201.51 341955.50
 -455894.65 -505700.47 420032.27
 -501762.43 -329290.35 528963.44
 -503658.99 -62375.581 618414.83
 -440610.34 247573.31 620137.07
 -329289.91 501763.67 528962.55
 -211145.67 654350.10 408954.10
 -116061.41 726547.06 314100.50
 -59388.603 752639.21 264588.76
 -471796.19 -557924.78 325773.39
 -535779.24 -492784.94 331818.64
 -605762.81 -377909.12 360882.41
 -654349.32 -211146.03 408955.16
 -660294.51 5777.8752 451638.99
 -608675.54 244913.13 457746.26
 -505700.07 455895.71 420031.59
 -377908.73 605763.57 360881.53
 -256358.59 692978.96 306692.74
 -172668.46 731310.72 274536.40
 -577953.36 -436506.71 339752.56
 -636388.03 -366433.57 317390.47
 -692978.43 -256358.87 306693.71
 -726546.56 -116061.64 314101.56
 -726922.89 48587.691 330488.05
 -687065.31 225522.26 342170.98
 -606201.23 394444.99 341954.99
 -492784.64 535779.96 331817.91
 -366433.32 636388.61 317389.60
 -265734.04 689943.51 305554.20
 -643489.61 -325233.69 346618.18
 -689943.01 -265734.22 305555.18
 -731310.30 -172668.63 274537.42
 -752638.84 -59388.704 264589.79
 -749367.15 67882.932 271736.61
 -717852.80 204267.96 288031.17
 -654467.77 342388.96 307313.76
 -557924.57 471796.86 325772.76
 -436506.53 577953.97 339751.76
 -325233.54 643490.19 346617.25
 293386.63 -669109.72 325908.67
 405668.89 -609006.61 323332.19
 531956.82 -509340.14 312401.29
 637318.04 -383335.65 294753.28
 710856.32 -244256.32 273901.71
 751437.34 -103733.35 254128.54
 761768.97 28286.024 242709.56
 746342.13 144535.05 249164.69