# OOMMF OVF 2.0
#
# Segment count: 1
#
# Begin: Segment
# Begin: Header
#
# Title: Oxs_MinDriver::Magnetization
# Desc: Oxs vector field output
# Desc:  MIF source file: /home/ryan/Git/joommf/tools/omfvis/cube_example.mif
# Desc:  Iteration: 5609, State id: 11910
# Desc:  Stage: 40, Stage iteration: 33
# Desc:  Stage simulation time: 0 s
# Desc:  Total simulation time: -2 s
# meshunit: m
# meshtype: rectangular
# xbase: 2.5000000000000001e-09
# ybase: 2.5000000000000001e-09
# zbase: 2.5000000000000001e-09
# xnodes: 10
# ynodes: 10
# znodes: 10
# xstepsize: 5.0000000000000001e-09
# ystepsize: 5.0000000000000001e-09
# zstepsize: 5.0000000000000001e-09
# xmin: 0
# ymin: 0
# zmin: 0
# xmax: 4.9999999999999998e-08
# ymax: 4.9999999999999998e-08
# zmax: 4.9999999999999998e-08
# valuedim: 3
# valuelabels: Magnetization_x Magnetization_y Magnetization_z
# valueunits: A/m A/m A/m
#
# End: Header
#
# Begin: Data Text
 252666.25 252666.25 715765.00
 221209.71 259581.46 723659.96
 170416.39 266440.95 734824.79
 107234.70 271362.85 744891.22
 36591.479 273883.36 750765.59
 -36591.486 273883.36 750765.59
 -107234.71 271362.85 744891.22
 -170416.39 266440.95 734824.79
 -221209.71 259581.45 723659.96
 -252666.25 252666.25 715765.00
 259581.45 221209.71 723659.96
 229730.34 229730.34 731059.47
 178404.66 237513.80 742804.80
 112825.76 243033.22 753793.87
 38593.238 245867.23 760302.48
 -38593.245 245867.23 760302.48
 -112825.77 243033.22 753793.87
 -178404.66 237513.80 742804.80
 -229730.34 229730.34 731059.47
 -259581.46 221209.71 723659.96
 266440.95 170416.39 734824.79
 237513.80 178404.66 742804.80
 185775.88 185775.88 755628.64
 118099.67 191016.06 767831.58
 40505.909 193714.50 775134.80
 -40505.915 193714.49 775134.80
 -118099.68 191016.06 767831.58
 -185775.88 185775.88 755628.64
 -237513.80 178404.66 742804.80
 -266440.95 170416.39 734824.79
 271362.85 107234.71 744891.22
 243033.22 112825.77 753793.87
 191016.06 118099.68 767831.58
 121883.95 121883.96 781209.71
 41887.392 123840.75 789245.79
 -41887.396 123840.75 789245.79
 -121883.96 121883.95 781209.71
 -191016.06 118099.67 767831.58
 -243033.22 112825.76 753793.87
 -271362.85 107234.70 744891.22
 273883.36 36591.486 750765.59
 245867.23 38593.245 760302.48
 193714.49 40505.915 775134.80
 123840.75 41887.396 789245.79
 42603.830 42603.832 797727.92
 -42603.832 42603.830 797727.92
 -123840.75 41887.392 789245.79
 -193714.50 40505.909 775134.80
 -245867.23 38593.238 760302.48
 -273883.36 36591.479 750765.59
 273883.36 -36591.479 750765.59
 245867.23 -38593.238 760302.48
 193714.50 -40505.909 775134.80
 123840.75 -41887.392 789245.79
 42603.832 -42603.830 797727.92
 -42603.830 -42603.832 797727.92
 -123840.75 -41887.396 789245.79
 -193714.49 -40505.915 775134.80
 -245867.23 -38593.245 760302.48
 -273883.36 -36591.486 750765.59
 271362.85 -107234.70 744891.22
 243033.22 -112825.76 753793.87
 191016.06 -118099.67 767831.58
 121883.96 -121883.95 781209.71
 41887.396 -123840.75 789245.79
 -41887.392 -123840.75 789245.79
 -121883.95 -121883.96 781209.71
 -191016.06 -118099.68 767831.58
 -243033.22 -112825.77 753793.87
 -271362.85 -107234.71 744891.22
 266440.95 -170416.39 734824.79
 237513.80 -178404.66 742804.80
 185775.88 -185775.88 755628.64
 118099.68 -191016.06 767831.58
 40505.915 -193714.49 775134.80
 -40505.909 -193714.50 775134.80
 -118099.67 -191016.06 767831.58
 -185775.88 -185775.88 755628.64
 -237513.80 -178404.66 742804.80
 -266440.95 -170416.39 734824.79
 259581.46 -221209.71 723659.96
 229730.34 -229730.34 731059.47
 178404.66 -237513.80 742804.80
 112825.77 -243033.22 753793.87
 38593.245 -245867.23 760302.48
 -38593.238 -245867.23 760302.48
 -112825.76 -243033.22 753793.87
 -178404.66 -237513.80 742804.80
 -229730.34 -229730.34 731059.47
 -259581.45 -221209.71 723659.96
 252666.25 -252666.25 715765.00
 221209.71 -259581.45 723659.96
 170416.39 -266440.95 734824.79
 107234.71 -271362.85 744891.22
 36591.486 -273883.36 750765.59
 -36591.479 -273883.36 750765.59
 -107234.70 -271362.85 744891.22
 -170416.39 -266440.95 734824.79
 -221209.71 -259581.46 723659.96
 -252666.25 -252666.25 715765.00
 201046.75 201046.76 747770.29
 178925.75 199282.22 753838.29
 138974.42 199498.06 762159.19
 87640.258 200076.41 769602.89
 29907.151 200419.47 773910.59
 -29907.158 200419.47 773910.59
 -87640.264 200076.41 769602.89
 -138974.43 199498.06 762159.19
 -178925.75 199282.22 753838.29
 -201046.76 201046.75 747770.29
 199282.22 178925.75 753838.29
 179756.57 179756.57 758534.87
 140888.92 181177.60 766371.31
 89270.955 182365.61 773804.55
 30525.149 182988.34 778192.45
 -30525.156 182988.33 778192.45
 -89270.961 182365.61 773804.55
 -140888.92 181177.60 766371.31
 -179756.57 179756.57 758534.87
 -199282.22 178925.75 753838.29
 199498.06 138974.43 762159.19
 181177.60 140888.92 766371.31
 142952.47 142952.48 774034.35
 90982.274 144430.46 781576.66
 31176.890 145167.22 786100.81
 -31176.895 145167.22 786100.81
 -90982.279 144430.45 781576.66
 -142952.48 142952.47 774034.35
 -181177.60 140888.92 766371.31
 -199498.06 138974.42 762159.19
 200076.41 87640.264 769602.89
 182365.61 89270.962 773804.55
 144430.45 90982.278 781576.66
 92176.432 92176.434 789307.93
 31630.759 92762.596 793973.93
 -31630.763 92762.593 793973.93
 -92176.433 92176.431 789307.93
 -144430.46 90982.274 781576.66
 -182365.61 89270.955 773804.55
 -200076.41 87640.258 769602.89
 200419.47 29907.159 773910.59
 182988.33 30525.154 778192.45
 145167.22 31176.897 786100.81
 92762.593 31630.762 793973.93
 31852.793 31852.794 798730.74
 -31852.793 31852.793 798730.74
 -92762.596 31630.759 793973.93
 -145167.22 31176.891 786100.81
 -182988.34 30525.149 778192.45
 -200419.47 29907.151 773910.59
 200419.47 -29907.152 773910.59
 182988.34 -30525.148 778192.45
 145167.22 -31176.892 786100.81
 92762.596 -31630.758 793973.93
 31852.794 -31852.794 798730.74
 -31852.793 -31852.793 798730.74
 -92762.592 -31630.762 793973.93
 -145167.22 -31176.896 786100.81
 -182988.33 -30525.155 778192.45
 -200419.47 -29907.158 773910.59
 200076.41 -87640.257 769602.89
 182365.61 -89270.956 773804.55
 144430.46 -90982.273 781576.66
 92176.434 -92176.432 789307.93
 31630.762 -92762.592 793973.93
 -31630.759 -92762.596 793973.93
 -92176.432 -92176.433 789307.93
 -144430.45 -90982.279 781576.66
 -182365.61 -89270.962 773804.55
 -200076.41 -87640.264 769602.89
 199498.06 -138974.42 762159.19
 181177.60 -140888.92 766371.31
 142952.48 -142952.47 774034.35
 90982.279 -144430.45 781576.66
 31176.896 -145167.22 786100.81
 -31176.890 -145167.22 786100.81
 -90982.274 -144430.46 781576.66
 -142952.47 -142952.48 774034.35
 -181177.60 -140888.93 766371.31
 -199498.06 -138974.43 762159.19
 199282.22 -178925.75 753838.29
 179756.57 -179756.57 758534.87
 140888.92 -181177.60 766371.31
 89270.961 -182365.61 773804.55
 30525.156 -182988.33 778192.45
 -30525.149 -182988.34 778192.45
 -89270.955 -182365.61 773804.55
 -140888.92 -181177.60 766371.31
 -179756.57 -179756.57 758534.87
 -199282.22 -178925.75 753838.29
 201046.76 -201046.75 747770.29
 178925.75 -199282.22 753838.29
 138974.43 -199498.06 762159.19
 87640.264 -200076.41 769602.89
 29907.158 -200419.47 773910.59
 -29907.151 -200419.47 773910.59
 -87640.258 -200076.41 769602.89
 -138974.42 -199498.06 762159.19
 -178925.75 -199282.22 753838.29
 -201046.75 -201046.76 747770.29
 139100.99 139101.00 775436.54
 123846.90 133221.55 779046.83
 96306.758 129025.58 783630.91
 60725.974 126457.05 787604.58
 20711.143 125212.75 789868.86
 -20711.150 125212.74 789868.86
 -60725.980 126457.05 787604.58
 -96306.763 129025.58 783630.91
 -123846.91 133221.55 779046.83
 -139101.00 139100.99 775436.54
 133221.55 123846.91 779046.83
 120445.15 120445.16 781655.89
 94666.180 117511.96 785639.39
 60015.362 115587.44 789327.37
 20513.261 114632.52 791478.74
 -20513.266 114632.52 791478.74
 -60015.368 115587.43 789327.37
 -94666.185 117511.96 785639.39
 -120445.16 120445.15 781655.89
 -133221.55 123846.90 779046.83
 129025.58 96306.762 783630.91
 117511.96 94666.185 785639.39
 93053.970 93053.975 789101.97
 59277.993 91880.075 792492.38
 20306.082 91263.849 794517.82
 -20306.086 91263.845 794517.82
 -59277.996 91880.074 792492.38
 -93053.975 93053.971 789101.97
 -117511.96 94666.179 785639.39
 -129025.58 96306.758 783630.91
 126457.05 60725.981 787604.58
 115587.43 60015.366 789327.37
 91880.075 59277.997 792492.38
 58690.043 58690.047 795682.70
 20131.898 58362.295 797614.29
 -20131.900 58362.296 797614.29
 -58690.047 58690.043 795682.70
 -91880.075 59277.993 792492.38
 -115587.44 60015.362 789327.37
 -126457.05 60725.974 787604.58
 125212.74 20711.149 789868.86
 114632.52 20513.269 791478.74
 91263.845 20306.084 794517.82
 58362.296 20131.901 797614.29
 20030.999 20031.000 799498.29
 -20031.001 20030.999 799498.29
 -58362.294 20131.898 797614.29
 -91263.850 20306.081 794517.82
 -114632.52 20513.262 791478.74
 -125212.75 20711.143 789868.86
 125212.75 -20711.143 789868.86
 114632.52 -20513.263 791478.74
 91263.849 -20306.080 794517.82
 58362.295 -20131.899 797614.29
 20031.000 -20030.998 799498.29
 -20030.998 -20031.001 799498.29
 -58362.297 -20131.901 797614.29
 -91263.844 -20306.085 794517.82
 -114632.52 -20513.268 791478.74
 -125212.74 -20711.149 789868.86
 126457.05 -60725.975 787604.58
 115587.44 -60015.361 789327.37
 91880.075 -59277.994 792492.38
 58690.047 -58690.042 795682.70
 20131.901 -58362.297 797614.29
 -20131.898 -58362.294 797614.29
 -58690.042 -58690.047 795682.70
 -91880.075 -59277.997 792492.38
 -115587.43 -60015.367 789327.37
 -126457.05 -60725.980 787604.58
 129025.58 -96306.758 783630.91
 117511.96 -94666.180 785639.39
 93053.974 -93053.970 789101.97
 59277.997 -91880.075 792492.38
 20306.086 -91263.845 794517.82
 -20306.081 -91263.850 794517.82
 -59277.993 -91880.074 792492.38
 -93053.970 -93053.975 789101.97
 -117511.96 -94666.184 785639.39
 -129025.58 -96306.763 783630.91
 133221.55 -123846.90 779046.83
 120445.15 -120445.15 781655.89
 94666.185 -117511.96 785639.39
 60015.367 -115587.43 789327.37
 20513.267 -114632.52 791478.74
 -20513.261 -114632.52 791478.74
 -60015.362 -115587.44 789327.37
 -94666.180 -117511.96 785639.39
 -120445.15 -120445.16 781655.89
 -133221.55 -123846.91 779046.83
 139101.00 -139100.99 775436.54
 123846.91 -133221.55 779046.83
 96306.763 -129025.58 783630.91
 60725.980 -126457.05 787604.58
 20711.150 -125212.74 789868.86
 -20711.143 -125212.75 789868.86
 -60725.974 -126457.05 787604.58
 -96306.758 -129025.58 783630.91
 -123846.90 -133221.55 779046.83
 -139100.99 -139101.00 775436.54
 79630.819 79630.822 792034.00
 70580.227 74381.320 793401.44
 54731.929 70019.017 795048.27
 34453.669 67148.818 796432.03
 11740.451 65732.239 797208.53
 -11740.457 65732.239 797208.53
 -34453.674 67148.816 796432.03
 -54731.934 70019.015 795048.27
 -70580.231 74381.317 793401.44
 -79630.822 79630.819 792034.00
 74381.317 70580.231 793401.44
 67035.778 67035.781 794362.89
 52620.626 63618.347 795728.46
 33336.839 61252.423 796954.70
 11389.503 60065.496 797660.59
 -11389.508 60065.493 797660.59
 -33336.843 61252.423 796954.70
 -52620.630 63618.344 795728.46
 -67035.781 67035.777 794362.89
 -74381.319 70580.228 793401.44
 70019.016 54731.934 795048.27
 63618.343 52620.629 795728.46
 50379.797 50379.800 796821.03
 32102.996 48728.909 797868.97
 10997.443 47875.116 798490.47
 -10997.447 47875.117 798490.47
 -32103.000 48728.906 797868.97
 -50379.800 50379.797 796821.03
 -63618.346 52620.626 795728.46
 -70019.018 54731.929 795048.27
 67148.816 34453.674 796432.03
 61252.424 33336.845 796954.70
 48728.905 32102.999 797868.97
 31155.414 31155.416 798785.75
 10690.704 30652.557 799341.06
 -10690.708 30652.555 799341.06
 -31155.415 31155.414 798785.75
 -48728.909 32102.996 797868.97
 -61252.423 33336.839 796954.70
 -67148.818 34453.669 796432.03
 65732.239 11740.458 797208.53
 60065.492 11389.506 797660.59
 47875.118 10997.449 798490.47
 30652.555 10690.706 799341.06
 10525.728 10525.729 799861.50
 -10525.728 10525.727 799861.50
 -30652.558 10690.704 799341.06
 -47875.115 10997.444 798490.47
 -60065.496 11389.502 797660.59
 -65732.239 11740.452 797208.53
 65732.239 -11740.452 797208.53
 60065.495 -11389.501 797660.59
 47875.116 -10997.445 798490.47
 30652.557 -10690.703 799341.06
 10525.728 -10525.729 799861.50
 -10525.728 -10525.727 799861.50
 -30652.554 -10690.707 799341.06
 -47875.118 -10997.448 798490.47
 -60065.492 -11389.507 797660.59
 -65732.239 -11740.458 797208.53
 67148.818 -34453.669 796432.03
 61252.424 -33336.840 796954.70
 48728.908 -32102.995 797868.97
 31155.416 -31155.415 798785.75
 10690.707 -30652.554 799341.06
 -10690.704 -30652.558 799341.06
 -31155.415 -31155.415 798785.75
 -48728.904 -32103.000 797868.97
 -61252.424 -33336.844 796954.70
 -67148.816 -34453.674 796432.03
 70019.018 -54731.929 795048.27
 63618.346 -52620.626 795728.46
 50379.800 -50379.797 796821.03
 32103.000 -48728.905 797868.97
 10997.448 -47875.118 798490.47
 -10997.444 -47875.115 798490.47
 -32102.996 -48728.910 797868.97
 -50379.798 -50379.799 796821.03
 -63618.343 -52620.630 795728.46
 -70019.016 -54731.934 795048.27
 74381.319 -70580.227 793401.44
 67035.781 -67035.778 794362.89
 52620.630 -63618.343 795728.46
 33336.844 -61252.423 796954.70
 11389.508 -60065.492 797660.59
 -11389.503 -60065.496 797660.59
 -33336.839 -61252.423 796954.70
 -52620.626 -63618.347 795728.46
 -67035.778 -67035.781 794362.89
 -74381.317 -70580.231 793401.44
 79630.822 -79630.819 792034.00
 70580.231 -74381.317 793401.44
 54731.934 -70019.016 795048.27
 34453.674 -67148.816 796432.03
 11740.457 -65732.239 797208.53
 -11740.451 -65732.238 797208.53
 -34453.669 -67148.818 796432.03
 -54731.929 -70019.017 795048.27
 -70580.227 -74381.320 793401.44
 -79630.819 -79630.822 792034.00
 25699.194 25699.197 799174.01
 22701.908 23693.480 799326.74
 17560.982 21947.066 799506.06
 11039.360 20773.481 799654.05
 3759.4455 20191.032 799736.32
 -3759.4509 20191.031 799736.32
 -11039.365 20773.480 799654.05
 -17560.987 21947.064 799506.06
 -22701.912 23693.478 799326.74
 -25699.197 25699.194 799174.01
 23693.478 22701.912 799326.74
 21297.245 21297.247 799432.83
 16691.046 19897.032 799578.34
 10566.501 18912.363 799706.62
 3608.9392 18416.576 799779.85
 -3608.9440 18416.576 799779.85
 -10566.505 18912.361 799706.62
 -16691.050 19897.029 799578.34
 -21297.248 21297.245 799432.83
 -23693.480 22701.908 799326.74
 21947.064 17560.986 799506.06
 19897.030 16691.051 799578.34
 15745.363 15745.365 799690.04
 10033.126 15043.769 799795.61
 3437.2680 14681.345 799857.89
 -3437.2717 14681.344 799857.89
 -10033.129 15043.767 799795.61
 -15745.366 15745.363 799690.04
 -19897.032 16691.046 799578.34
 -21947.066 17560.982 799506.06
 20773.480 11039.366 799654.05
 18912.361 10566.504 799706.62
 15043.768 10033.131 799795.61
 9623.4109 9623.4127 799884.23
 3303.3762 9407.2552 799937.87
 -3303.3784 9407.2536 799937.87
 -9623.4137 9623.4115 799884.23
 -15043.769 10033.126 799795.61
 -18912.363 10566.500 799706.62
 -20773.481 11039.360 799654.05
 20191.031 3759.4500 799736.32
 18416.576 3608.9459 799779.85
 14681.344 3437.2699 799857.89
 9407.2543 3303.3796 799937.87
 3231.9702 3231.9701 799986.94
 -3231.9714 3231.9710 799986.94
 -9407.2542 3303.3757 799937.87
 -14681.346 3437.2675 799857.89
 -18416.575 3608.9403 799779.85
 -20191.032 3759.4449 799736.32
 20191.032 -3759.4446 799736.32
 18416.576 -3608.9410 799779.85
 14681.345 -3437.2663 799857.89
 9407.2549 -3303.3774 799937.87
 3231.9706 -3231.9691 799986.94
 -3231.9695 -3231.9721 799986.94
 -9407.2551 -3303.3779 799937.87
 -14681.343 -3437.2712 799857.89
 -18416.576 -3608.9451 799779.85
 -20191.031 -3759.4503 799736.32
 20773.481 -11039.360 799654.05
 18912.363 -10566.499 799706.62
 15043.769 -10033.127 799795.61
 9623.4129 -9623.4102 799884.23
 3303.3792 -9407.2552 799937.87
 -3303.3771 -9407.2535 799937.87
 -9623.4102 -9623.4143 799884.23
 -15043.768 -10033.129 799795.61
 -18912.361 -10566.504 799706.62
 -20773.480 -11039.365 799654.05
 21947.066 -17560.982 799506.06
 19897.032 -16691.047 799578.34
 15745.365 -15745.362 799690.04
 10033.130 -15043.768 799795.61
 3437.2709 -14681.343 799857.89
 -3437.2672 -14681.346 799857.89
 -10033.127 -15043.768 799795.61
 -15745.362 -15745.366 799690.04
 -19897.030 -16691.050 799578.34
 -21947.064 -17560.986 799506.06
 23693.480 -22701.908 799326.74
 21297.248 -21297.244 799432.83
 16691.050 -19897.030 799578.34
 10566.505 -18912.361 799706.62
 3608.9446 -18416.576 799779.85
 -3608.9398 -18416.575 799779.85
 -10566.500 -18912.364 799706.62
 -16691.046 -19897.031 799578.34
 -21297.245 -21297.248 799432.83
 -23693.478 -22701.912 799326.74
 25699.197 -25699.194 799174.01
 22701.912 -23693.478 799326.74
 17560.987 -21947.064 799506.06
 11039.365 -20773.480 799654.05
 3759.4506 -20191.031 799736.32
 -3759.4452 -20191.032 799736.32
 -11039.360 -20773.481 799654.05
 -17560.982 -21947.066 799506.06
 -22701.908 -23693.480 799326.74
 -25699.194 -25699.197 799174.01
 -25699.197 -25699.194 799174.01
 -22701.911 -23693.478 799326.74
 -17560.987 -21947.064 799506.06
 -11039.365 -20773.480 799654.05
 -3759.4509 -20191.031 799736.32
 3759.4455 -20191.032 799736.32
 11039.360 -20773.481 799654.05
 17560.983 -21947.066 799506.06
 22701.908 -23693.480 799326.74
 25699.194 -25699.197 799174.01
 -23693.480 -22701.908 799326.74
 -21297.248 -21297.244 799432.83
 -16691.049 -19897.030 799578.34
 -10566.506 -18912.361 799706.62
 -3608.9438 -18416.576 799779.85
 3608.9390 -18416.575 799779.85
 10566.501 -18912.364 799706.62
 16691.045 -19897.032 799578.34
 21297.245 -21297.248 799432.83
 23693.477 -22701.912 799326.74
 -21947.066 -17560.982 799506.06
 -19897.031 -16691.047 799578.34
 -15745.367 -15745.362 799690.04
 -10033.129 -15043.768 799795.61
 -3437.2720 -14681.343 799857.89
 3437.2682 -14681.347 799857.89
 10033.125 -15043.768 799795.61
 15745.363 -15745.366 799690.04
 19897.029 -16691.050 799578.34
 21947.064 -17560.986 799506.06
 -20773.481 -11039.360 799654.05
 -18912.364 -10566.500 799706.62
 -15043.768 -10033.127 799795.61
 -9623.4142 -9623.4104 799884.23
 -3303.3781 -9407.2553 799937.87
 3303.3761 -9407.2531 799937.87
 9623.4112 -9623.4150 799884.23
 15043.767 -10033.129 799795.61
 18912.362 -10566.505 799706.62
 20773.480 -11039.365 799654.05
 -20191.032 -3759.4449 799736.32
 -18416.575 -3608.9403 799779.85
 -14681.346 -3437.2672 799857.89
 -9407.2539 -3303.3767 799937.87
 -3231.9715 -3231.9692 799986.94
 3231.9703 -3231.9726 799986.94
 9407.2543 -3303.3769 799937.87
 14681.344 -3437.2724 799857.89
 18416.576 -3608.9442 799779.85
 20191.031 -3759.4506 799736.32
 -20191.031 3759.4504 799736.32
 -18416.576 3608.9449 799779.85
 -14681.343 3437.2711 799857.89
 -9407.2551 3303.3786 799937.87
 -3231.9694 3231.9706 799986.94
 3231.9707 3231.9713 799986.94
 9407.2547 3303.3749 799937.87
 14681.345 3437.2685 799857.89
 18416.576 3608.9394 799779.85
 20191.032 3759.4452 799736.32
 -20773.480 11039.365 799654.05
 -18912.361 10566.504 799706.62
 -15043.768 10033.130 799795.61
 -9623.4104 9623.4136 799884.23
 -3303.3770 9407.2548 799937.87
 3303.3790 9407.2535 799937.87
 9623.4134 9623.4121 799884.23
 15043.769 10033.125 799795.61
 18912.363 10566.501 799706.62
 20773.481 11039.360 799654.05
 -21947.064 17560.986 799506.06
 -19897.029 16691.050 799578.34
 -15745.363 15745.365 799690.04
 -10033.126 15043.769 799795.61
 -3437.2673 14681.345 799857.89
 3437.2711 14681.345 799857.89
 10033.129 15043.767 799795.61
 15745.366 15745.363 799690.04
 19897.031 16691.046 799578.34
 21947.066 17560.982 799506.06
 -23693.477 22701.912 799326.74
 -21297.245 21297.247 799432.83
 -16691.046 19897.032 799578.34
 -10566.501 18912.363 799706.62
 -3608.9397 18416.576 799779.85
 3608.9444 18416.575 799779.85
 10566.505 18912.362 799706.62
 16691.050 19897.029 799578.34
 21297.248 21297.245 799432.83
 23693.480 22701.908 799326.74
 -25699.194 25699.197 799174.01
 -22701.908 23693.480 799326.74
 -17560.982 21947.066 799506.06
 -11039.360 20773.481 799654.05
 -3759.4453 20191.032 799736.32
 3759.4507 20191.031 799736.32
 11039.365 20773.480 799654.05
 17560.987 21947.064 799506.06
 22701.912 23693.478 799326.74
 25699.197 25699.194 799174.01
 -79630.822 -79630.819 792034.00
 -70580.231 -74381.317 793401.44
 -54731.934 -70019.016 795048.27
 -34453.675 -67148.816 796432.03
 -11740.457 -65732.239 797208.53
 11740.451 -65732.239 797208.53
 34453.670 -67148.818 796432.03
 54731.929 -70019.017 795048.27
 70580.228 -74381.319 793401.44
 79630.819 -79630.822 792034.00
 -74381.320 -70580.227 793401.44
 -67035.780 -67035.778 794362.89
 -52620.631 -63618.343 795728.46
 -33336.843 -61252.423 796954.70
 -11389.509 -60065.492 797660.59
 11389.504 -60065.496 797660.59
 33336.838 -61252.423 796954.70
 52620.627 -63618.347 795728.46
 67035.776 -67035.781 794362.89
 74381.317 -70580.231 793401.44
 -70019.017 -54731.929 795048.27
 -63618.348 -52620.626 795728.46
 -50379.798 -50379.797 796821.03
 -32103.001 -48728.905 797868.97
 -10997.446 -47875.118 798490.47
 10997.443 -47875.115 798490.47
 32102.997 -48728.910 797868.97
 50379.795 -50379.799 796821.03
 63618.345 -52620.631 795728.46
 70019.015 -54731.934 795048.27
 -67148.819 -34453.669 796432.03
 -61252.422 -33336.839 796954.70
 -48728.910 -32102.996 797868.97
 -31155.414 -31155.414 798785.75
 -10690.708 -30652.554 799341.06
 10690.705 -30652.559 799341.06
 31155.413 -31155.413 798785.75
 48728.906 -32103.002 797868.97
 61252.422 -33336.843 796954.70
 67148.817 -34453.675 796432.03
 -65732.239 -11740.451 797208.53
 -60065.496 -11389.503 797660.59
 -47875.115 -10997.443 798490.47
 -30652.559 -10690.705 799341.06
 -10525.727 -10525.728 799861.50
 10525.728 -10525.726 799861.50
 30652.555 -10690.710 799341.06
 47875.117 -10997.445 798490.47
 60065.493 -11389.509 797660.59
 65732.239 -11740.457 797208.53
 -65732.239 11740.457 797208.53
 -60065.492 11389.508 797660.59
 -47875.118 10997.447 798490.47
 -30652.554 10690.708 799341.06
 -10525.728 10525.728 799861.50
 10525.728 10525.727 799861.50
 30652.558 10690.706 799341.06
 47875.115 10997.442 798490.47
 60065.496 11389.504 797660.59
 65732.239 11740.451 797208.53
 -67148.816 34453.674 796432.03
 -61252.423 33336.844 796954.70
 -48728.905 32103.001 797868.97
 -31155.414 31155.414 798785.75
 -10690.704 30652.558 799341.06
 10690.707 30652.556 799341.06
 31155.415 31155.412 798785.75
 48728.910 32102.997 797868.97
 61252.423 33336.838 796954.70
 67148.818 34453.669 796432.03
 -70019.015 54731.934 795048.27
 -63618.344 52620.630 795728.46
 -50379.796 50379.800 796821.03
 -32102.996 48728.909 797868.97
 -10997.443 47875.116 798490.47
 10997.447 47875.117 798490.47
 32103.001 48728.906 797868.97
 50379.798 50379.796 796821.03
 63618.348 52620.627 795728.46
 70019.017 54731.929 795048.27
 -74381.317 70580.231 793401.44
 -67035.777 67035.781 794362.89
 -52620.627 63618.346 795728.46
 -33336.838 61252.423 796954.70
 -11389.503 60065.495 797660.59
 11389.508 60065.493 797660.59
 33336.843 61252.423 796954.70
 52620.631 63618.344 795728.46
 67035.780 67035.777 794362.89
 74381.320 70580.228 793401.44
 -79630.819 79630.822 792034.00
 -70580.228 74381.319 793401.44
 -54731.929 70019.018 795048.27
 -34453.669 67148.818 796432.03
 -11740.451 65732.239 797208.53
 11740.457 65732.239 797208.53
 34453.675 67148.816 796432.03
 54731.934 70019.015 795048.27
 70580.231 74381.317 793401.44
 79630.822 79630.819 792034.00
 -139101.00 -139100.99 775436.54
 -123846.91 -133221.55 779046.83
 -96306.763 -129025.58 783630.91
 -60725.980 -126457.05 787604.58
 -20711.150 -125212.74 789868.86
 20711.144 -125212.75 789868.86
 60725.974 -126457.05 787604.58
 96306.758 -129025.58 783630.91
 123846.90 -133221.55 779046.83
 139100.99 -139101.00 775436.54
 -133221.55 -123846.90 779046.83
 -120445.16 -120445.15 781655.89
 -94666.183 -117511.96 785639.39
 -60015.369 -115587.43 789327.37
 -20513.266 -114632.52 791478.74
 20513.260 -114632.52 791478.74
 60015.364 -115587.44 789327.37
 94666.178 -117511.96 785639.39
 120445.15 -120445.16 781655.89
 133221.55 -123846.91 779046.83
 -129025.58 -96306.758 783630.91
 -117511.96 -94666.179 785639.39
 -93053.976 -93053.971 789101.97
 -59277.995 -91880.074 792492.38
 -20306.087 -91263.845 794517.82
 20306.082 -91263.850 794517.82
 59277.991 -91880.073 792492.38
 93053.972 -93053.976 789101.97
 117511.96 -94666.184 785639.39
 129025.58 -96306.763 783630.91
 -126457.05 -60725.974 787604.58
 -115587.44 -60015.363 789327.37
 -91880.073 -59277.992 792492.38
 -58690.049 -58690.044 795682.70
 -20131.899 -58362.296 797614.29
 20131.897 -58362.293 797614.29
 58690.044 -58690.049 795682.70
 91880.073 -59277.994 792492.38
 115587.43 -60015.369 789327.37
 126457.05 -60725.980 787604.58
 -125212.75 -20711.144 789868.86
 -114632.52 -20513.260 791478.74
 -91263.850 -20306.083 794517.82
 -58362.294 -20131.897 797614.29
 -20031.001 -20030.999 799498.29
 20030.999 -20031.002 799498.29
 58362.296 -20131.898 797614.29
 91263.846 -20306.089 794517.82
 114632.52 -20513.265 791478.74
 125212.74 -20711.150 789868.86
 -125212.74 20711.150 789868.86
 -114632.52 20513.266 791478.74
 -91263.845 20306.088 794517.82
 -58362.296 20131.899 797614.29
 -20030.998 20031.001 799498.29
 20031.001 20031.000 799498.29
 58362.294 20131.896 797614.29
 91263.850 20306.084 794517.82
 114632.52 20513.259 791478.74
 125212.75 20711.144 789868.86
 -126457.05 60725.980 787604.58
 -115587.43 60015.368 789327.37
 -91880.074 59277.995 792492.38
 -58690.043 58690.048 795682.70
 -20131.898 58362.294 797614.29
 20131.900 58362.295 797614.29
 58690.048 58690.044 795682.70
 91880.074 59277.991 792492.38
 115587.44 60015.364 789327.37
 126457.05 60725.974 787604.58
 -129025.58 96306.763 783630.91
 -117511.96 94666.185 785639.39
 -93053.972 93053.975 789101.97
 -59277.992 91880.074 792492.38
 -20306.082 91263.849 794517.82
 20306.087 91263.845 794517.82
 59277.995 91880.074 792492.38
 93053.976 93053.971 789101.97
 117511.96 94666.179 785639.39
 129025.58 96306.758 783630.91
 -133221.55 123846.91 779046.83
 -120445.15 120445.15 781655.89
 -94666.178 117511.96 785639.39
 -60015.363 115587.44 789327.37
 -20513.260 114632.52 791478.74
 20513.266 114632.52 791478.74
 60015.368 115587.43 789327.37
 94666.183 117511.96 785639.39
 120445.16 120445.15 781655.89
 133221.55 123846.90 779046.83
 -139100.99 139101.00 775436.54
 -123846.90 133221.55 779046.83
 -96306.758 129025.58 783630.91
 -60725.974 126457.05 787604.58
 -20711.144 125212.75 789868.86
 20711.150 125212.74 789868.86
 60725.980 126457.05 787604.58
 96306.763 129025.58 783630.91
 123846.91 133221.55 779046.83
 139101.00 139100.99 775436.54
 -201046.76 -201046.75 747770.29
 -178925.75 -199282.22 753838.29
 -138974.43 -199498.06 762159.19
 -87640.264 -200076.41 769602.89
 -29907.158 -200419.47 773910.59
 29907.151 -200419.47 773910.59
 87640.258 -200076.41 769602.89
 138974.42 -199498.06 762159.19
 178925.75 -199282.22 753838.29
 201046.75 -201046.76 747770.29
 -199282.22 -178925.75 753838.29
 -179756.57 -179756.57 758534.87
 -140888.93 -181177.60 766371.31
 -89270.960 -182365.61 773804.55
 -30525.156 -182988.33 778192.45
 30525.150 -182988.34 778192.45
 89270.954 -182365.61 773804.55
 140888.92 -181177.60 766371.31
 179756.57 -179756.57 758534.87
 199282.22 -178925.75 753838.29
 -199498.06 -138974.42 762159.19
 -181177.60 -140888.92 766371.31
 -142952.48 -142952.47 774034.35
 -90982.280 -144430.45 781576.66
 -31176.895 -145167.22 786100.81
 31176.890 -145167.22 786100.81
 90982.275 -144430.46 781576.66
 142952.47 -142952.48 774034.35
 181177.60 -140888.93 766371.31
 199498.06 -138974.43 762159.19
 -200076.41 -87640.258 769602.89
 -182365.61 -89270.954 773804.55
 -144430.46 -90982.275 781576.66
 -92176.432 -92176.431 789307.93
 -31630.763 -92762.593 793973.93
 31630.759 -92762.597 793973.93
 92176.431 -92176.432 789307.93
 144430.45 -90982.281 781576.66
 182365.61 -89270.960 773804.55
 200076.41 -87640.264 769602.89
 -200419.47 -29907.151 773910.59
 -182988.34 -30525.150 778192.45
 -145167.22 -31176.889 786100.81
 -92762.597 -31630.760 793973.93
 -31852.793 -31852.793 798730.74
 31852.793 -31852.793 798730.74
 92762.593 -31630.764 793973.93
 145167.22 -31176.894 786100.81
 182988.33 -30525.157 778192.45
 200419.47 -29907.158 773910.59
 -200419.47 29907.158 773910.59
 -182988.33 30525.156 778192.45
 -145167.22 31176.894 786100.81
 -92762.593 31630.764 793973.93
 -31852.793 31852.793 798730.74
 31852.793 31852.792 798730.74
 92762.596 31630.760 793973.93
 145167.22 31176.889 786100.81
 182988.34 30525.150 778192.45
 200419.47 29907.151 773910.59
 -200076.41 87640.264 769602.89
 -182365.61 89270.961 773804.55
 -144430.45 90982.280 781576.66
 -92176.431 92176.433 789307.93
 -31630.759 92762.596 793973.93
 31630.763 92762.593 793973.93
 92176.433 92176.430 789307.93
 144430.46 90982.275 781576.66
 182365.61 89270.954 773804.55
 200076.41 87640.258 769602.89
 -199498.06 138974.43 762159.19
 -181177.60 140888.93 766371.31
 -142952.47 142952.48 774034.35
 -90982.275 144430.46 781576.66
 -31176.890 145167.22 786100.81
 31176.895 145167.22 786100.81
 90982.280 144430.45 781576.66
 142952.48 142952.47 774034.35
 181177.60 140888.92 766371.31
 199498.06 138974.42 762159.19
 -199282.22 178925.75 753838.29
 -179756.57 179756.57 758534.87
 -140888.92 181177.60 766371.31
 -89270.954 182365.61 773804.55
 -30525.150 182988.34 778192.45
 30525.156 182988.33 778192.45
 89270.960 182365.61 773804.55
 140888.93 181177.60 766371.31
 179756.57 179756.57 758534.87
 199282.22 178925.75 753838.29
 -201046.75 201046.76 747770.29
 -178925.75 199282.22 753838.29
 -138974.42 199498.06 762159.19
 -87640.258 200076.41 769602.89
 -29907.151 200419.47 773910.59
 29907.158 200419.47 773910.59
 87640.264 200076.41 769602.89
 138974.43 199498.06 762159.19
 178925.75 199282.22 753838.29
 201046.76 201046.75 747770.29
 -252666.25 -252666.25 715765.00
 -221209.71 -259581.45 723659.96
 -170416.39 -266440.95 734824.79
 -107234.71 -271362.85 744891.22
 -36591.486 -273883.36 750765.59
 36591.479 -273883.36 750765.59
 107234.70 -271362.85 744891.22
 170416.39 -266440.95 734824.79