# OOMMF OVF 2.0
#
# Segment count: 1
#
# Begin: Segment
# Begin: Header
#
# Title: Oxs_MinDriver::Magnetization
# Desc: Oxs vector field output
# Desc:  MIF source file: /home/ryan/Git/joommf/tools/omfvis/cube_example.mif
# Desc:  Iteration: 1003, State id: 2092
# Desc:  Stage: 0, Stage iteration: 1003
# Desc:  Stage simulation time: -1 s
# Desc:  Total simulation time: -2 s
# meshunit: m
# meshtype: rectangular
# xbase: 2.5000000000000001e-09
# ybase: 2.5000000000000001e-09
# zbase: 2.5000000000000001e-09
# xnodes: 10
# ynodes: 10
# znodes: 10
# xstepsize: 5.0000000000000001e-09
# ystepsize: 5.0000000000000001e-09
# zstepsize: 5.0000000000000001e-09
# xmin: 0
# ymin: 0
# zmin: 0
# xmax: 4.9999999999999998e-08
# ymax: 4.9999999999999998e-08
# zmax: 4.9999999999999998e-08
# valuedim: 3
# valuelabels: Magnetization_x Magnetization_y Magnetization_z
# valueunits: A/m A/m A/m
#
# End: Header
#
# Begin: Data Text
 -375465.17 182897.25 682330.20
 -477625.23 193659.19 611858.04
 -590149.90 199347.63 501979.70
 -682780.21 196187.95 367860.68
 -746491.10 183574.48 221475.61
 -779657.88 163703.84 73038.579
 -783979.18 143969.70 -68186.302
 -763630.24 135897.36 -195961.13
 -724902.24 149486.73 -303595.89
 -682330.16 182897.34 -375465.20
 -402431.01 189173.03 665028.45
 -505609.64 195588.64 588306.02
 -614576.37 200631.53 471214.26
 -699346.42 199524.28 333323.64
 -753931.54 190597.26 187776.23
 -779383.37 175134.12 43469.593
 -778430.27 159317.34 -93082.229
 -754285.73 153161.93 -218161.55
 -711506.98 164621.86 -326584.55
 -665028.41 189173.13 -402431.04
 -441736.57 195959.08 637549.09
 -540522.78 199718.67 554930.25
 -641307.51 204435.20 432355.10
 -715548.13 205800.01 292638.40
 -759805.81 201183.39 149065.00
 -776917.83 190594.46 8510.7515
 -769704.41 178466.77 -125318.54
 -739879.80 172723.80 -250488.26
 -690483.97 179655.27 -361878.25
 -637549.05 195959.20 -441736.57
 -484384.51 202144.51 603746.01
 -575175.59 203591.39 517420.12
 -665149.13 207823.28 392919.99
 -728483.13 211290.51 254300.30
 -763356.62 210623.15 113686.20
 -773038.80 204513.90 -24188.405
 -759545.79 195567.02 -157618.93
 -722936.94 189698.49 -285265.96
 -665109.49 192224.57 -400847.95
 -603745.96 202144.66 -484384.51
 -526291.25 205887.09 566240.26
 -607380.81 204504.85 478817.62
 -685931.43 207539.72 355563.41
 -739196.39 212469.10 220103.56
 -766045.06 215273.70 82657.138
 -769163.56 213281.16 -53838.288
 -749272.76 207344.51 -188675.89
 -704890.73 201640.97 -320109.31
 -637232.43 200810.25 -440011.45
 -566240.20 205887.26 -526291.24
 -566240.23 205887.09 526291.27
 -637232.46 200810.11 440011.47
 -704890.76 201640.88 320109.31
 -749272.77 207344.46 188675.89
 -769163.57 213281.14 53838.289
 -766045.05 215273.71 -82657.145
 -739196.38 212469.15 -220103.56
 -685931.40 207539.81 -355563.41
 -607380.79 204504.99 -478817.59
 -526291.22 205887.26 -566240.22
 -603746.00 202144.51 484384.52
 -665109.52 192224.46 400847.95
 -722936.96 189698.41 285265.95
 -759545.81 195566.98 157618.93
 -773038.80 204513.88 24188.393
 -763356.62 210623.17 -113686.21
 -728483.12 211290.56 -254300.30
 -665149.11 207823.37 -392919.98
 -575175.57 203591.52 -517420.10
 -484384.48 202144.68 -603745.98
 -637549.09 195959.09 441736.57
 -690484.00 179655.18 361878.23
 -739879.82 172723.73 250488.25
 -769704.42 178466.73 125318.53
 -776917.84 190594.44 -8510.7625
 -759805.81 201183.39 -149065.01
 -715548.12 205800.04 -292638.40
 -641307.49 204435.27 -432355.09
 -540522.76 199718.79 -554930.22
 -441736.53 195959.24 -637549.07
 -665028.45 189173.05 402431.00
 -711507.01 164621.79 326584.51
 -754285.75 153161.87 218161.51
 -778430.28 159317.31 93082.199
 -779383.37 175134.10 -43469.616
 -753931.54 190597.25 -187776.25
 -699346.41 199524.29 -333323.65
 -614576.35 200631.58 -471214.26
 -505609.61 195588.74 -588306.01
 -402430.98 189173.16 -665028.44
 -682330.20 182897.28 375465.15
 -724902.27 149486.68 303595.83
 -763630.26 135897.31 195961.08
 -783979.19 143969.67 68186.254
 -779657.89 163703.82 -73038.613
 -746491.10 183574.47 -221475.63
 -682780.20 196187.96 -367860.68
 -590149.88 199347.68 -501979.70
 -477625.20 193659.28 -611858.03
 -375465.14 182897.37 -682330.19
 -303595.85 149486.66 724902.27
 -399928.35 171797.90 671224.84
 -522686.91 199717.87 571761.46
 -637648.71 222452.48 428857.80
 -723901.55 229929.47 251195.11
 -767869.89 216665.25 58583.304
 -767116.03 190853.93 -122913.72
 -730460.05 170980.20 -277837.88
 -671224.81 171797.95 -399928.40
 -611857.99 193659.25 -477625.26
 -326584.52 164621.78 711507.01
 -424411.98 186046.79 652120.44
 -545517.00 215403.09 544070.50
 -653242.33 240387.14 394320.27
 -728796.01 250054.62 215241.87
 -763060.55 238809.35 26621.198
 -756224.28 213792.45 -149725.17
 -715659.80 191753.87 -301763.99
 -652120.39 186046.84 -424412.02
 -588305.98 195588.70 -505609.67
 -361878.23 179655.17 690484.01
 -458393.23 201591.33 623888.28
 -573491.82 232630.39 506942.04
 -669897.07 260027.49 351601.51
 -732008.23 272466.52 172991.20
 -755015.24 264258.20 -10935.687
 -740552.46 240765.81 -183340.89
 -693887.11 215852.44 -334557.03
 -623888.24 201591.40 -458393.26
 -554930.20 199718.75 -540522.80
 -400847.94 192224.45 665109.53
 -493478.94 213931.44 592209.31
 -599696.50 245413.34 469186.96
 -683828.74 274267.68 311697.76
 -733492.70 289267.96 135323.74
 -746412.84 284351.91 -44853.711
 -724158.31 262779.41 -215735.32
 -670051.41 235515.82 -368189.35
 -592209.27 213931.53 -493478.96
 -517420.08 203591.49 -575175.60
 -440011.46 200810.10 637232.47
 -527166.31 220684.57 559816.04
 -623535.19 250806.07 433935.68
 -696262.28 280054.95 277106.58
 -735434.65 297363.92 103491.90
 -739572.29 295733.46 -74662.878
 -709288.97 276250.20 -246160.48
 -646544.99 247541.59 -400877.46
 -559816.01 220684.66 -527166.31
 -478817.57 204504.98 -607380.81
 -478817.61 204504.85 607380.82
 -559816.04 220684.56 527166.32
 -646545.02 247541.53 400877.45
 -709288.99 276250.16 246160.47
 -739572.30 295733.45 74662.865
 -735434.65 297363.93 -103491.91
 -696262.27 280054.98 -277106.58
 -623535.17 250806.15 -433935.68
 -527166.29 220684.67 -559816.03
 -440011.43 200810.24 -637232.44
 -517420.12 203591.39 575175.59
 -592209.31 213931.45 493478.94
 -670051.44 235515.76 368189.34
 -724158.32 262779.38 215735.31
 -746412.85 284351.90 44853.694
 -733492.69 289267.96 -135323.75
 -683828.73 274267.71 -311697.76
 -599696.48 245413.40 -469186.95
 -493478.92 213931.55 -592209.29
 -400847.92 192224.58 -665109.51
 -554930.25 199718.67 540522.77
 -623888.28 201591.33 458393.23
 -693887.14 215852.39 334557.00
 -740552.48 240765.77 183340.87
 -755015.25 264258.18 10935.667
 -732008.23 272466.51 -172991.21
 -669897.06 260027.51 -351601.51
 -573491.81 232630.44 -506942.03
 -458393.22 201591.42 -623888.26
 -361878.22 179655.29 -690483.99
 -588306.04 195588.64 505609.62
 -652120.45 186046.79 424411.96
 -715659.83 191753.82 301763.94
 -756224.30 213792.42 149725.12
 -763060.56 238809.32 -26621.228
 -728796.01 250054.61 -215241.89
 -653242.34 240387.14 -394320.27
 -545517.00 215403.12 -544070.49
 -424411.97 186046.87 -652120.42
 -326584.51 164621.88 -711506.99
 -611858.06 193659.21 477625.20
 -671224.86 171797.91 399928.33
 -730460.08 170980.16 277837.82
 -767116.04 190853.89 122913.66
 -767869.89 216665.23 -58583.339
 -723901.55 229929.46 -251195.12
 -637648.71 222452.47 -428857.80
 -522686.90 199717.90 -571761.46
 -399928.35 171797.97 -671224.83
 -303595.85 149486.75 -724902.25
 -195961.08 135897.31 763630.26
 -277837.83 170980.17 730460.07
 -401281.57 230919.93 652417.88
 -540554.42 299760.25 507882.58
 -661623.50 347044.19 286032.64
 -723768.34 340254.91 19646.457
 -712984.37 287503.13 -221348.68
 -652417.85 230919.93 -401281.62
 -571761.42 199717.89 -522686.94
 -501979.66 199347.65 -590149.93
 -218161.51 153161.87 754285.75
 -301763.95 191753.84 715659.82
 -424417.35 257724.60 627254.29
 -554961.04 331373.81 471391.19
 -659617.05 380191.71 245681.92
 -706980.37 374143.37 -13982.150
 -689885.59 320536.88 -247616.61
 -627254.26 257724.61 -424417.39
 -544070.46 215403.11 -545517.04
 -471214.22 200631.54 -614576.39
 -250488.24 172723.72 739879.82
 -334557.00 215852.39 693887.14
 -452659.17 287506.31 593666.40
 -569664.55 364455.55 427380.92
 -654603.24 413716.27 200831.88
 -685658.38 409065.21 -50380.985
 -660459.16 356194.02 -277343.69
 -593666.37 287506.33 -452659.20
 -506941.99 232630.41 -573491.85
 -432355.05 204435.23 -641307.53
 -285265.96 189698.40 722936.96
 -368189.34 235515.76 670051.44
 -479388.44 309952.55 560460.65
 -582337.59 387769.47 387966.20
 -650005.52 436902.50 163122.72
 -667101.76 434023.88 -81231.280
 -633272.58 382678.77 -304175.60
 -560460.62 309952.58 -479388.46
 -469186.91 245413.38 -599696.52
 -392919.95 207823.32 -665149.14
 -320109.32 201640.87 704890.76
 -400877.46 247541.52 646545.02
 -504666.06 321603.64 530926.81
 -595334.54 398662.41 355872.26
 -649338.57 447903.87 133197.40
 -654751.71 446935.00 -107467.68
 -611619.74 396951.49 -329166.83
 -530926.78 321603.67 -504666.06
 -433935.65 250806.13 -623535.19
 -355563.38 207539.79 -685931.42
 -355563.42 207539.71 685931.43
 -433935.69 250806.07 623535.19
 -530926.81 321603.63 504666.05
 -611619.76 396951.48 329166.81
 -654751.72 446935.00 107467.66
 -649338.56 447903.87 -133197.43
 -595334.52 398662.43 -355872.28
 -504666.03 321603.67 -530926.81
 -400877.43 247541.59 -646545.01
 -320109.29 201640.96 -704890.75
 -392920.00 207823.27 665149.13
 -469186.96 245413.33 599696.50
 -560460.66 309952.54 479388.43
 -633272.61 382678.75 304175.58
 -667101.76 434023.87 81231.252
 -650005.52 436902.50 -163122.74
 -582337.57 387769.48 -387966.21
 -479388.42 309952.58 -560460.65
 -368189.32 235515.82 -670051.43
 -285265.93 189698.48 -722936.95
 -432355.12 204435.18 641307.50
 -506942.05 232630.38 573491.82
 -593666.41 287506.30 452659.16
 -660459.18 356194.00 277343.66
 -685658.39 409065.20 50380.964
 -654603.25 413716.25 -200831.90
 -569664.55 364455.54 -427380.92
 -452659.16 287506.33 -593666.40
 -334557.00 215852.44 -693887.12
 -250488.24 172723.80 -739879.81
 -471214.29 200631.51 614576.35
 -544070.53 215403.07 545516.98
 -627254.31 257724.57 424417.33
 -689885.62 320536.84 247616.56
 -706980.38 374143.35 13982.108
 -659617.06 380191.69 -245681.94
 -554961.04 331373.79 -471391.19
 -424417.35 257724.60 -627254.29
 -301763.96 191753.88 -715659.81
 -218161.51 153161.93 -754285.74
 -501979.74 199347.62 590149.87
 -571761.49 199717.86 522686.88
 -652417.90 230919.90 401281.55
 -712984.40 287503.10 221348.61
 -723768.36 340254.88 -19646.498
 -661623.51 347044.17 -286032.66
 -540554.42 299760.23 -507882.59
 -401281.58 230919.93 -652417.87
 -277837.85 170980.20 -730460.06
 -195961.10 135897.36 -763630.25
 -68186.255 143969.67 783979.19
 -122913.67 190853.91 767116.04
 -221348.63 287503.12 712984.39
 -359089.01 422825.50 576431.85
 -505877.58 538964.96 305948.76
 -590130.22 537052.15 -57630.905
 -576431.82 422825.51 -359089.05
 -507882.55 299760.25 -540554.45
 -428857.76 222452.47 -637648.74
 -367860.64 196187.94 -682780.23
 -93082.203 159317.31 778430.28
 -149725.13 213792.43 756224.29
 -247616.57 320536.87 689885.61
 -373610.74 460827.51 536705.71
 -493663.26 572297.78 262243.86
 -554573.06 570520.12 -83399.707
 -536705.68 460827.51 -373610.78
 -471391.15 331373.80 -554961.07
 -394320.23 240387.13 -653242.36
 -333323.60 199524.26 -699346.44
 -125318.53 178466.72 769704.42
 -183340.86 240765.77 740552.48
 -277343.66 356194.01 660459.18
 -387157.79 497659.30 492386.10
 -479369.66 601975.50 218701.25
 -517375.07 600570.52 -107879.95
 -492386.07 497659.30 -387157.81
 -427380.88 364455.54 -569664.58
 -351601.46 260027.48 -669897.10
 -292638.36 205800.00 -715548.15
 -157618.94 195566.96 759545.81
 -215735.32 262779.36 724158.32
 -304175.59 382678.74 633272.60
 -398845.94 522491.09 455987.92
 -469282.31 620766.70 185533.87
 -489455.56 619887.81 -127170.58
 -455987.90 522491.09 -398845.96
 -387966.18 387769.46 -582337.61
 -311697.72 274267.67 -683828.76
 -254300.27 211290.51 -728483.15
 -188675.90 207344.45 749272.77
 -246160.48 276250.15 709288.99
 -329166.83 396951.47 611619.76
 -411835.80 534487.75 429783.80
 -466539.25 629399.59 161855.76
 -472804.12 629102.88 -143825.70
 -429783.79 534487.75 -411835.82
 -355872.24 398662.41 -595334.55
 -277106.55 280054.96 -696262.29
 -220103.53 212469.12 -739196.39
 -220103.57 212469.10 739196.39
 -277106.59 280054.94 696262.28
 -355872.28 398662.41 595334.53
 -429783.82 534487.75 411835.79
 -472804.12 629102.89 143825.65
 -466539.24 629399.59 -161855.79
 -411835.78 534487.75 -429783.83
 -329166.80 396951.49 -611619.77
 -246160.45 276250.18 -709288.99
 -188675.87 207344.48 -749272.77
 -254300.31 211290.51 728483.13
 -311697.78 274267.67 683828.74
 -387966.22 387769.46 582337.58
 -455987.92 522491.10 398845.92
 -489455.57 619887.81 127170.55
 -469282.31 620766.70 -185533.89
 -398845.93 522491.08 -455987.93
 -304175.57 382678.75 -633272.60
 -215735.30 262779.40 -724158.32
 -157618.91 195567.01 -759545.80
 -292638.42 205800.01 715548.12
 -351601.53 260027.48 669897.06
 -427380.94 364455.54 569664.55
 -492386.11 497659.30 387157.78
 -517375.08 600570.52 107879.92
 -479369.66 601975.48 -218701.27
 -387157.79 497659.29 -492386.11
 -277343.65 356194.01 -660459.18
 -183340.86 240765.79 -740552.47
 -125318.52 178466.76 -769704.41
 -333323.68 199524.27 699346.40
 -394320.30 240387.13 653242.32
 -471391.22 331373.79 554961.01
 -536705.73 460827.51 373610.73
 -554573.09 570520.10 83399.664
 -493663.27 572297.75 -262243.90
 -373610.75 460827.48 -536705.73
 -247616.57 320536.85 -689885.62
 -149725.13 213792.45 -756224.29
 -93082.212 159317.34 -778430.27
 -367860.72 196187.95 682780.18
 -428857.85 222452.46 637648.69
 -507882.62 299760.24 540554.39
 -576431.88 422825.49 359088.99
 -590130.25 537052.12 57630.848
 -505877.60 538964.92 -305948.80
 -359089.02 422825.46 -576431.87
 -221348.64 287503.10 -712984.39
 -122913.69 190853.92 -767116.03
 -68186.280 143969.70 -783979.18
 73038.611 163703.83 779657.89
 58583.335 216665.25 767869.89
 19646.482 340254.90 723768.34
 -57630.882 537052.13 590130.23
 -173894.30 730451.24 276046.67
 -276046.63 730451.25 -173894.32
 -305948.72 538964.96 -505877.60
 -286032.61 347044.19 -661623.52
 -251195.07 229929.47 -723901.57
 -221475.57 183574.46 -746491.12
 43469.611 175134.10 779383.37
 26621.219 238809.34 763060.56
 -13982.125 374143.36 706980.37
 -83399.693 570520.11 554573.08
 -171946.77 742921.42 241872.01
 -241871.98 742921.43 -171946.77
 -262243.84 572297.77 -493663.28
 -245681.89 380191.70 -659617.07
 -215241.84 250054.60 -728796.03
 -187776.20 190597.23 -753931.56
 8510.7567 190594.43 776917.84
 -10935.680 264258.17 755015.25
 -50380.978 409065.20 685658.38
 -107879.94 600570.51 517375.08
 -169679.92 752727.19 211211.99
 -211211.98 752727.19 -169679.92
 -218701.22 601975.49 -479369.68
 -200831.86 413716.25 -654603.26
 -172991.17 272466.49 -732008.24
 -149064.97 201183.35 -759805.83
 -24188.406 204513.87 773038.81
 -44853.716 284351.90 746412.85
 -81231.275 434023.86 667101.77
 -127170.58 619887.81 489455.57
 -168931.02 758472.94 190213.35
 -190213.34 758472.94 -168931.02
 -185533.86 620766.69 -469282.33
 -163122.70 436902.48 -650005.54
 -135323.72 289267.93 -733492.71
 -113686.18 210623.12 -763356.64
 -53838.298 213281.14 769163.57
 -74662.883 295733.44 739572.30
 -107467.68 446935.00 654751.71
 -143825.69 629102.89 472804.11
 -171103.85 761041.70 177592.25
 -177592.27 761041.69 -171103.86
 -161855.76 629399.58 -466539.27
 -133197.39 447903.85 -649338.59
 -103491.88 297363.90 -735434.66
 -82657.125 215273.67 -766045.07
 -82657.145 215273.69 766045.06
 -103491.91 297363.93 735434.65
 -133197.42 447903.88 649338.56
 -161855.77 629399.60 466539.22
 -177592.27 761041.70 171103.81
 -171103.84 761041.69 -177592.30
 -143825.67 629102.87 -472804.15
 -107467.65 446934.98 -654751.73
 -74662.856 295733.42 -739572.31
 -53838.279 213281.13 -769163.57
 -113686.21 210623.16 763356.62
 -135323.75 289267.97 733492.69
 -163122.73 436902.53 650005.51
 -185533.87 620766.72 469282.28
 -190213.34 758472.95 168930.97
 -168931.00 758472.93 -190213.38
 -127170.56 619887.79 -489455.59
 -81231.251 434023.85 -667101.78
 -44853.691 284351.89 -746412.85
 -24188.382 204513.88 -773038.81
 -149065.01 201183.40 759805.81
 -172991.21 272466.53 732008.22
 -200831.89 413716.29 654603.23
 -218701.25 601975.52 479369.63
 -211211.98 752727.20 169679.88
 -169679.92 752727.18 -211212.02
 -107879.93 600570.50 -517375.11
 -50380.962 409065.18 -685658.40
 -10935.664 264258.17 -755015.25
 8510.7683 190594.44 -776917.84
 -187776.26 190597.28 753931.53
 -215241.90 250054.64 728796.00
 -245681.94 380191.73 659617.04
 -262243.88 572297.79 493663.23
 -241872.00 742921.44 171946.72
 -171946.77 742921.41 -241872.05
 -83399.689 570520.07 -554573.12
 -13982.122 374143.33 -706980.39
 26621.217 238809.32 -763060.56
 43469.613 175134.10 -779383.37
 -221475.65 183574.50 746491.09
 -251195.15 229929.49 723901.53
 -286032.68 347044.21 661623.48
 -305948.79 538964.97 505877.55
 -276046.67 730451.25 173894.25
 -173894.33 730451.21 -276046.73
 -57630.897 537052.08 -590130.28
 19646.467 340254.87 -723768.36
 58583.320 216665.23 -767869.89
 73038.600 163703.83 -779657.89
 221475.62 183574.48 746491.10
 251195.10 229929.48 723901.55
 286032.62 347044.19 661623.51
 305948.75 538964.95 505877.60
 276046.66 730451.23 173894.35
 173894.35 730451.24 -276046.63
 57630.931 537052.15 -590130.21
 -19646.434 340254.91 -723768.34
 -58583.282 216665.23 -767869.89
 -73038.548 163703.81 -779657.89
 187776.23 190597.26 753931.54
 215241.86 250054.62 728796.01
 245681.90 380191.70 659617.07
 262243.85 572297.77 493663.28
 241872.00 742921.42 171946.80
 171946.79 742921.43 -241871.98
 83399.730 570520.11 -554573.07
 13982.159 374143.35 -706980.37
 -26621.171 238809.31 -763060.56
 -43469.562 175134.07 -779383.38
 149064.99 201183.39 759805.81
 172991.18 272466.51 732008.23
 200831.86 413716.26 654603.25
 218701.23 601975.49 479369.67
 211211.97 752727.19 169679.94
 169679.93 752727.19 -211211.97
 107879.96 600570.52 -517375.08
 50381.002 409065.19 -685658.39
 10935.708 264258.15 -755015.26
 -8510.7201 190594.41 -776917.85
 113686.19 210623.16 763356.62
 135323.72 289267.96 733492.70
 163122.70 436902.51 650005.52
 185533.85 620766.70 469282.32
 190213.33 758472.94 168931.02
 168931.01 758472.94 -190213.34
 127170.59 619887.79 -489455.58
 81231.286 434023.84 -667101.78
 44853.734 284351.86 -746412.86
 24188.431 204513.83 -773038.82
 82657.134 215273.71 766045.06
 103491.89 297363.94 735434.64
 133197.40 447903.88 649338.56
 161855.76 629399.60 466539.23
 177592.25 761041.70 171103.82
 171103.83 761041.69 -177592.29
 143825.69 629102.86 -472804.15
 107467.68 446934.96 -654751.74
 74662.886 295733.40 -739572.31
 53838.306 213281.10 -769163.58
 53838.293 213281.17 769163.56
 74662.874 295733.47 739572.29
 107467.67 446935.03 654751.69
 143825.68 629102.90 472804.10
 171103.84 761041.71 177592.23
 177592.27 761041.69 -171103.87
 161855.78 629399.56 -466539.28
 133197.42 447903.83 -649338.59
 103491.90 297363.89 -735434.66
 82657.151 215273.66 -766045.07
 24188.411 204513.92 773038.79
 44853.718 284351.94 746412.83
 81231.279 434023.91 667101.74
 127170.59 619887.84 489455.52
 168931.02 758472.95 190213.29
 190213.35 758472.93 -168931.06
 185533.87 620766.67 -469282.35
 163122.73 436902.47 -650005.55
 135323.75 289267.92 -733492.71
 113686.21 210623.12 -763356.63
 -8510.7451 190594.49 776917.83
 10935.691 264258.23 755015.23
 50380.993 409065.25 685658.35
 107879.96 600570.56 517375.03
 169679.93 752727.20 211211.92
 211211.98 752727.18 -169679.98
 218701.24 601975.46 -479369.70
 200831.87 413716.22 -654603.27
 172991.19 272466.48 -732008.24
 149065.00 201183.36 -759805.82
 -43469.607 175134.15 779383.36
 -26621.209 238809.38 763060.54
 13982.134 374143.40 706980.35
 83399.705 570520.15 554573.03
 171946.78 742921.45 241871.93
 241872.00 742921.41 -171946.85
 262243.85 572297.73 -493663.32
 245681.91 380191.65 -659617.09
 215241.87 250054.58 -728796.02
 187776.24 190597.22 -753931.55
 -73038.606 163703.88 779657.88
 -58583.331 216665.28 767869.88
 -19646.481 340254.95 723768.32
 57630.892 537052.18 590130.19
 173894.32 730451.27 276046.58
 276046.65 730451.22 -173894.42
 305948.74 538964.90 -505877.66
 286032.62 347044.14 -661623.54
 251195.11 229929.43 -723901.56
 221475.62 183574.45 -746491.11
 367860.67 196187.97 682780.21
 428857.78 222452.50 637648.72
 507882.54 299760.27 540554.44
 576431.81 422825.52 359089.05
 590130.21 537052.15 57630.931
 505877.60 538964.96 -305948.72
 359089.06 422825.51 -576431.82
 221348.69 287503.11 -712984.38
 122913.73 190853.89 -767116.03
 68186.331 143969.64 -783979.19
 333323.62 199524.29 699346.42
 394320.23 240387.16 653242.35
 471391.15 331373.82 554961.06
 536705.67 460827.52 373610.79
 554573.06 570520.12 83399.727
 493663.27 572297.78 -262243.84
 373610.78 460827.51 -536705.68
 247616.63 320536.84 -689885.60
 149725.18 213792.40 -756224.29
 93082.263 159317.27 -778430.28
 292638.37 205800.04 715548.13
 351601.47 260027.51 669897.08
 427380.88 364455.56 569664.58
 492386.06 497659.32 387157.82
 517375.05 600570.54 107879.96
 479369.65 601975.50 -218701.23
 387157.81 497659.30 -492386.08
 277343.70 356193.98 -660459.17
 183340.91 240765.74 -740552.48
 125318.57 178466.68 -769704.42
 254300.28 211290.55 728483.13
 311697.73 274267.71 683828.74
 387966.17 387769.48 582337.60
 455987.89 522491.10 398845.95
 489455.55 619887.82 127170.58
 469282.31 620766.70 -185533.87
 398845.96 522491.07 -455987.92
 304175.62 382678.71 -633272.61
 215735.34 262779.33 -724158.33
 157618.96 195566.92 -759545.81
 220103.55 212469.16 739196.38
 277106.57 280054.99 696262.27
 355872.26 398662.44 595334.52
 429783.79 534487.77 411835.79
 472804.11 629102.89 143825.66
 466539.25 629399.58 -161855.79
 411835.81 534487.72 -429783.84
 329166.84 396951.43 -611619.78
 246160.48 276250.11 -709289.01
 188675.91 207344.40 -749272.78
 188675.90 207344.52 749272.75
 246160.48 276250.21 709288.97
 329166.83 396951.51 611619.73
 411835.80 534487.78 429783.77
 466539.24 629399.60 161855.73
 472804.13 629102.87 -143825.71
 429783.82 534487.72 -411835.83
 355872.27 398662.36 -595334.57
 277106.59 280054.90 -696262.30
 220103.57 212469.05 -739196.40
 157618.95 195567.05 759545.78
 215735.33 262779.44 724158.29
 304175.62 382678.80 633272.55
 398845.96 522491.12 455987.86
 469282.32 620766.71 185533.82
 489455.57 619887.79 -127170.62
 455987.92 522491.05 -398845.99
 387966.20 387769.42 -582337.62
 311697.76 274267.62 -683828.77
 254300.30 211290.46 -728483.15
 125318.55 178466.80 769704.40
 183340.90 240765.85 740552.44
 277343.71 356194.06 660459.13
 387157.82 497659.34 492386.03
 479369.67 601975.51 218701.18
 517375.08 600570.51 -107880.00
 492386.08 497659.27 -387157.84
 427380.91 364455.49 -569664.60
 351601.49 260027.44 -669897.10
 292638.39 205799.95 -715548.15
 93082.227 159317.38 778430.26
 149725.16 213792.49 756224.27
 247616.61 320536.91 689885.57
 373610.78 460827.54 536705.65
 493663.28 572297.79 262243.80
 554573.08 570520.10 -83399.767
 536705.70 460827.46 -373610.82
 471391.17 331373.75 -554961.09
 394320.25 240387.08 -653242.37
 333323.64 199524.21 -699346.44
 68186.286 143969.73 783979.18
 122913.69 190853.96 767116.02
 221348.67 287503.16 712984.36
 359089.05 422825.54 576431.80
 505877.61 538964.98 305948.68
 590130.23 537052.13 -57630.979
 576431.83 422825.46 -359089.10
 507882.56 299760.19 -540554.47
 428857.79 222452.42 -637648.74
 367860.67 196187.89 -682780.23
 501979.68 199347.68 590149.90
 571761.43 199717.92 522686.92
 652417.84 230919.97 401281.61
 712984.36 287503.16 221348.69
 723768.33 340254.94 -19646.433
 661623.51 347044.21 -286032.61
 540554.45 299760.24 -507882.55
 401281.63 230919.90 -652417.85
 277837.91 170980.13 -730460.06
 195961.16 135897.26 -763630.25
 471214.23 200631.57 614576.38
 544070.45 215403.13 545517.03
 627254.24 257724.64 424417.40
 689885.57 320536.90 247616.63
 706980.35 374143.39 13982.162
 659617.06 380191.72 -245681.89
 554961.06 331373.79 -471391.16
 424417.40 257724.56 -627254.27
 301764.02 191753.78 -715659.81
 218161.58 153161.82 -754285.74
 432355.05 204435.26 641307.52
 506941.99 232630.44 573491.85
 593666.36 287506.36 452659.20
 660459.14 356194.04 277343.69
 685658.36 409065.24 50380.994
 654603.24 413716.28 -200831.86
 569664.58 364455.52 -427380.91
 452659.21 287506.26 -593666.39
 334557.05 215852.34 -693887.13
 250488.30 172723.67 -739879.82
 392919.96 207823.36 665149.12
 469186.91 245413.40 599696.51
 560460.61 309952.60 479388.45
 633272.57 382678.79 304175.61
 667101.75 434023.90 81231.269
 650005.52 436902.50 -163122.73
 582337.60 387769.44 -387966.21
 479388.47 309952.50 -560460.65
 368189.38 235515.70 -670051.44
 285265.99 189698.35 -722936.96
 355563.40 207539.81 685931.41
 433935.66 250806.17 623535.17
 530926.79 321603.69 504666.04
 611619.74 396951.52 329166.80
 654751.70 446935.02 107467.65
 649338.57 447903.86 -133197.43
 595334.55 398662.38 -355872.29
 504666.07 321603.58 -530926.83
 400877.47 247541.47 -646545.03
 320109.33 201640.82 -704890.77
 320109.32 201641.00 704890.72
 400877.46 247541.62 646544.98
 504666.06 321603.70 530926.76
 595334.54 398662.45 355872.23
 649338.56 447903.89 133197.38
 654751.72 446934.99 -107467.69
 611619.76 396951.44 -329166.86
 530926.82 321603.58 -504666.08
 433935.68 250806.02 -623535.21
 355563.42 207539.65 -685931.44
 285265.98 189698.53 722936.92
 368189.37 235515.86 670051.39
 479388.46 309952.61 560460.59
 582337.60 387769.50 387966.15
 650005.53 436902.51 163122.68
 667101.77 434023.86 -81231.306
 633272.60 382678.71 -304175.64
 560460.65 309952.50 -479388.48
 469186.95 245413.27 -599696.53
 392919.99 207823.20 -665149.15
 250488.28 172723.84 739879.78
 334557.05 215852.48 693887.08
 452659.21 287506.37 593666.34
 569664.58 364455.58 427380.85
 654603.26 413716.28 200831.82
 685658.39 409065.19 -50381.021
 660459.17 356193.97 -277343.72
 593666.39 287506.26 -452659.22
 506942.02 232630.32 -573491.87
 432355.08 204435.12 -641307.55
 218161.54 153161.97 754285.72
 301764.00 191753.91 715659.79
 424417.39 257724.64 627254.25
 554961.06 331373.83 471391.13
 659617.07 380191.72 245681.86
 706980.37 374143.35 -13982.187
 689885.60 320536.82 -247616.64
 627254.28 257724.53 -424417.41
 544070.48 215403.02 -545517.05
 471214.25 200631.44 -614576.41
 195961.11 135897.40 763630.24
 277837.87 170980.23 730460.05
 401281.61 230919.97 652417.84
 540554.45 299760.28 507882.53
 661623.52 347044.21 286032.57
 723768.35 340254.90 19646.401
 712984.38 287503.08 -221348.72
 652417.86 230919.86 -401281.64
 571761.44 199717.81 -522686.95
 501979.68 199347.56 -590149.94
 611858.01 193659.27 477625.23
 671224.81 171797.97 399928.38
 730460.04 170980.23 277837.88
 767116.01 190853.97 122913.72
 767869.88 216665.29 -58583.290
 723901.55 229929.49 -251195.09
 637648.73 222452.46 -428857.78
 522686.96 199717.84 -571761.43
 399928.43 171797.84 -671224.81
 303595.95 149486.59 -724902.24
 588305.98 195588.73 505609.65
 652120.39 186046.88 424412.01
 715659.78 191753.91 301764.00
 756224.26 213792.50 149725.18
 763060.54 238809.38 -26621.182
 728796.01 250054.63 -215241.86
 653242.36 240387.11 -394320.25
 545517.05 215403.04 -544070.47
 424412.05 186046.72 -652120.41
 326584.60 164621.71 -711506.99
 554930.19 199718.79 540522.80
 623888.22 201591.43 458393.26
 693887.09 215852.47 334557.04
 740552.45 240765.84 183340.90
 755015.23 264258.23 10935.696
 732008.23 272466.52 -172991.18
 669897.09 260027.46 -351601.49
 573491.86 232630.33 -506942.02
 458393.29 201591.27 -623888.25
 361878.30 179655.10 -690483.99
 517420.07 203591.52 575175.59
 592209.26 213931.56 493478.95
 670051.41 235515.85 368189.35
 724158.30 262779.44 215735.32
 746412.83 284351.94 44853.712
 733492.69 289267.96 -135323.74
 683828.76 274267.64 -311697.76
 599696.53 245413.28 -469186.95
 493478.98 213931.38 -592209.30
 400847.99 192224.38 -665109.52
 478817.58 204505.01 607380.79
 559816.01 220684.69 527166.29
 646545.00 247541.63 400877.43
 709288.97 276250.22 246160.45
 739572.29 295733.47 74662.857
 735434.65 297363.92 -103491.91
 696262.30 280054.91 -277106.59
 623535.21 250806.03 -433935.69
 527166.33 220684.50 -559816.05
 440011.48 200810.05 -637232.47
 440011.47 200810.28 637232.41
 527166.32 220684.70 559815.98
 623535.19 250806.17 433935.64
 696262.28 280055.00 277106.54
 735434.64 297363.95 103491.87
 739572.30 295733.43 -74662.892
 709289.00 276250.13 -246160.49
 646545.02 247541.48 -400877.48
 559816.05 220684.50 -527166.33
 478817.62 204504.78 -607380.84
 400847.98 192224.62 665109.46
 493478.97 213931.58 592209.24
 599696.52 245413.42 469186.89
 683828.75 274267.72 311697.71
 733492.70 289267.97 135323.71
 746412.85 284351.89 -44853.734
 724158.32 262779.34 -215735.35
 670051.44 235515.71 -368189.38
 592209.30 213931.38 -493478.98
 517420.12 203591.31 -575175.63
 361878.28 179655.32 690483.94
 458393.27 201591.45 623888.21
 573491.85 232630.46 506941.97
 669897.09 260027.52 351601.45
 732008.23 272466.52 172991.16
 755015.25 264258.17 -10935.717
 740552.47 240765.74 -183340.91
 693887.13 215852.34 -334557.06
 623888.26 201591.27 -458393.28
 554930.22 199718.59 -540522.84
 326584.57 164621.90 711506.96
 424412.02 186046.89 652120.38
 545517.03 215403.14 544070.45
 653242.35 240387.17 394320.22
 728796.02 250054.63 215241.83
 763060.56 238809.32 26621.163
 756224.29 213792.40 -149725.19
 715659.81 191753.78 -301764.02
 652120.41 186046.73 -424412.04
 588306.00 195588.56 -505609.70
 303595.90 149486.78 724902.22
 399928.40 171797.99 671224.80
 522686.93 199717.93 571761.42
 637648.73 222452.50 428857.76
 723901.56 229929.49 251195.06
 767869.89 216665.24 58583.265
 767116.03 190853.88 -122913.74
 730460.06 170980.12 -277837.90
 671224.82 171797.85 -399928.41
 611858.02 193659.14 -477625.28
 682330.17 182897.36 375465.17
 724902.24 149486.76 303595.87
 763630.24 135897.39 195961.12
 783979.17 143969.74 68186.311
 779657.88 163703.89 -73038.577
 746491.10 183574.50 -221475.60
 682780.22 196187.93 -367860.66