# OOMMF OVF 2.0
#
# Segment count: 1
#
# Begin: Segment
# Begin: Header
#
# Title: Oxs_MinDriver::Magnetization
# Desc: Oxs vector field output
# Desc:  MIF source file: /home/ryan/Git/joommf/tools/omfvis/cube_example.mif
# Desc:  Iteration: 3775, State id: 7890
# Desc:  Stage: 17, Stage iteration: 106
# Desc:  Stage simulation time: 0 s
# Desc:  Total simulation time: -2 s
# meshunit: m
# meshtype: rectangular
# xbase: 2.5000000000000001e-09
# ybase: 2.5000000000000001e-09
# zbase: 2.5000000000000001e-09
# xnodes: 10
# ynodes: 10
# znodes: 10
# xstepsize: 5.0000000000000001e-09
# ystepsize: 5.0000000000000001e-09
# zstepsize: 5.0000000000000001e-09
# xmin: 0
# ymin: 0
# zmin: 0
# xmax: 4.9999999999999998e-08
# ymax: 4.9999999999999998e-08
# zmax: 4.9999999999999998e-08
# valuedim: 3
# valuelabels: Magnetization_x Magnetization_y Magnetization_z
# valueunits: A/m A/m A/m
#
# End: Header
#
# Begin: Data Text
 524833.57 -5699.0171 603752.64
 554736.84 13078.046 576277.71
 573897.85 57807.695 554346.03
 570475.94 125612.25 546606.59
 537830.97 210801.28 553444.36
 471497.50 304491.49 570065.82
 370998.13 394173.40 589056.63
 243929.59 465933.41 602830.34
 110104.41 509538.80 606833.78
 5699.0171 524833.57 603752.64
 509538.80 -110104.41 606833.78
 540189.99 -81020.453 584491.63
 560068.44 -20817.000 570867.75
 555973.87 68370.725 571155.41
 519480.89 179852.95 581199.21
 445972.53 300153.65 592466.27
 338328.76 410375.45 597599.90
 209272.92 493231.02 594077.44
 81020.453 540189.99 584491.63
 -13078.046 554736.84 576277.71
 465933.41 -243929.59 602830.34
 493231.02 -209272.92 594077.44
 510556.82 -135620.16 600781.91
 503234.44 -22560.506 621487.03
 459957.58 122859.08 642918.87
 376390.76 279134.27 648393.45
 261654.32 415632.95 631495.26
 135620.16 510556.82 600781.91
 20817.000 560068.44 570867.75
 -57807.695 573897.85 554346.03
 394173.40 -370998.13 589056.63
 410375.45 -338328.76 597599.90
 415632.95 -261654.32 631495.26
 396525.38 -133782.91 681813.58
 341096.98 41380.351 722454.51
 247932.08 233573.85 723859.75
 133782.91 396525.38 681813.58
 22560.506 503234.44 621487.03
 -68370.726 555973.87 571155.41
 -125612.25 570475.94 546606.59
 304491.49 -471497.50 570065.82
 300153.65 -445972.53 592466.27
 279134.27 -376390.75 648393.45
 233573.85 -247932.08 723859.75
 157540.11 -58438.803 782154.73
 58438.803 157540.11 782154.73
 -41380.350 341096.98 722454.51
 -122859.08 459957.58 642918.87
 -179852.95 519480.89 581199.21
 -210801.28 537830.97 553444.36
 210801.28 -537830.97 553444.36
 179852.95 -519480.89 581199.21
 122859.08 -459957.58 642918.87
 41380.350 -341096.98 722454.51
 -58438.803 -157540.11 782154.73
 -157540.11 58438.803 782154.73
 -233573.85 247932.08 723859.75
 -279134.27 376390.75 648393.45
 -300153.65 445972.53 592466.27
 -304491.49 471497.50 570065.82
 125612.25 -570475.94 546606.59
 68370.726 -555973.87 571155.41
 -22560.507 -503234.44 621487.03
 -133782.91 -396525.38 681813.58
 -247932.08 -233573.85 723859.75
 -341096.98 -41380.351 722454.51
 -396525.38 133782.91 681813.58
 -415632.95 261654.32 631495.26
 -410375.45 338328.76 597599.90
 -394173.40 370998.13 589056.63
 57807.696 -573897.85 554346.03
 -20817.000 -560068.44 570867.75
 -135620.16 -510556.82 600781.91
 -261654.32 -415632.95 631495.26
 -376390.75 -279134.27 648393.45
 -459957.58 -122859.08 642918.87
 -503234.44 22560.506 621487.03
 -510556.82 135620.16 600781.91
 -493231.02 209272.92 594077.44
 -465933.41 243929.59 602830.34
 13078.046 -554736.84 576277.71
 -81020.453 -540189.99 584491.63
 -209272.92 -493231.02 594077.44
 -338328.76 -410375.45 597599.90
 -445972.53 -300153.65 592466.27
 -519480.89 -179852.95 581199.21
 -555973.87 -68370.725 571155.41
 -560068.44 20817.000 570867.75
 -540189.99 81020.453 584491.63
 -509538.80 110104.41 606833.78
 -5699.0170 -524833.57 603752.64
 -110104.41 -509538.80 606833.78
 -243929.59 -465933.41 602830.34
 -370998.13 -394173.40 589056.63
 -471497.50 -304491.49 570065.82
 -537830.97 -210801.28 553444.36
 -570475.94 -125612.25 546606.59
 -573897.85 -57807.695 554346.03
 -554736.84 -13078.046 576277.71
 -524833.57 5699.0172 603752.64
 475426.35 -47270.846 641666.00
 511162.23 -31402.525 614595.04
 538677.89 9779.2344 591380.16
 544322.52 72776.641 581735.81
 521975.27 152240.48 586825.91
 467684.57 240842.92 602715.38
 380459.44 328226.89 622509.22
 266279.25 402056.41 638314.97
 143267.99 451966.09 644360.88
 47270.846 475426.35 641666.00
 451966.09 -143267.99 644360.88
 487340.89 -114427.13 624023.47
 514181.96 -57728.391 610151.08
 518149.43 24911.377 609016.08
 492297.67 127969.54 617468.06
 432910.37 240675.37 628222.87
 341712.00 347495.66 634412.86
 228820.01 432879.83 632658.25
 114427.13 487340.89 624023.47
 31402.526 511162.23 614595.04
 402056.41 -266279.25 638314.97
 432879.83 -228820.01 632658.25
 454962.01 -157517.90 638903.50
 454178.01 -52480.094 656481.67
 422639.65 80435.551 674467.08
 357401.29 224649.51 679556.41
 264155.65 356092.74 665897.71
 157517.90 454962.01 638903.50
 57728.391 514181.96 610151.08
 -9779.2346 538677.89 591380.16
 328226.89 -380459.44 622509.22
 347495.67 -341712.00 634412.85
 356092.73 -264155.65 665897.71
 343018.80 -143578.41 708324.32
 301758.46 15023.187 740753.76
 232060.22 188594.49 742010.90
 143578.41 343018.80 708324.32
 52480.094 454178.01 656481.66
 -24911.377 518149.43 609016.08
 -72776.642 544322.52 581735.81
 240842.92 -467684.57 602715.38
 240675.37 -432910.37 628222.88
 224649.51 -357401.29 679556.41
 188594.48 -232060.22 742010.90
 131827.27 -59914.104 786785.78
 59914.103 131827.27 786785.78
 -15023.186 301758.46 740753.76
 -80435.551 422639.65 674467.08
 -127969.54 492297.67 617468.06
 -152240.48 521975.27 586825.91
 152240.48 -521975.27 586825.91
 127969.54 -492297.67 617468.06
 80435.550 -422639.65 674467.08
 15023.188 -301758.46 740753.76
 -59914.104 -131827.27 786785.78
 -131827.27 59914.104 786785.78
 -188594.49 232060.22 742010.90
 -224649.51 357401.29 679556.41
 -240675.37 432910.37 628222.87
 -240842.92 467684.57 602715.38
 72776.642 -544322.52 581735.81
 24911.376 -518149.43 609016.08
 -52480.093 -454178.01 656481.67
 -143578.41 -343018.80 708324.32
 -232060.22 -188594.49 742010.90
 -301758.46 -15023.187 740753.76
 -343018.80 143578.41 708324.32
 -356092.73 264155.65 665897.71
 -347495.67 341712.00 634412.86
 -328226.89 380459.44 622509.22
 9779.2341 -538677.89 591380.16
 -57728.390 -514181.96 610151.08
 -157517.90 -454962.01 638903.50
 -264155.65 -356092.73 665897.71
 -357401.29 -224649.51 679556.41
 -422639.65 -80435.551 674467.08
 -454178.01 52480.094 656481.67
 -454962.01 157517.90 638903.50
 -432879.83 228820.01 632658.25
 -402056.41 266279.25 638314.97
 -31402.525 -511162.23 614595.04
 -114427.13 -487340.89 624023.47
 -228820.01 -432879.83 632658.25
 -341712.00 -347495.67 634412.85
 -432910.37 -240675.37 628222.87
 -492297.67 -127969.54 617468.06
 -518149.43 -24911.377 609016.08
 -514181.96 57728.391 610151.08
 -487340.89 114427.13 624023.47
 -451966.09 143267.99 644360.88
 -47270.846 -475426.35 641666.00
 -143267.99 -451966.09 644360.88
 -266279.25 -402056.41 638314.97
 -380459.44 -328226.89 622509.22
 -467684.57 -240842.92 602715.38
 -521975.27 -152240.48 586825.91
 -544322.52 -72776.641 581735.81
 -538677.89 -9779.2345 591380.16
 -511162.23 31402.526 614595.04
 -475426.35 47270.846 641666.00
 410355.75 -101572.62 679184.19
 451474.54 -84603.491 654990.83
 488191.13 -44394.698 632217.16
 504892.71 14950.947 620370.71
 495537.47 88348.423 621801.55
 456994.62 170025.43 634229.67
 388310.24 252319.45 652341.97
 293663.56 325593.40 669141.72
 187549.75 380232.04 678416.31
 101572.62 410355.75 679184.19
 380232.04 -187549.75 678416.31
 419115.64 -157771.23 662910.49
 453708.12 -102768.10 650836.12
 468234.95 -25664.433 648149.19
 456358.67 68506.225 653485.78
 415203.00 171603.73 661935.52
 345570.33 272219.19 668189.99
 254422.06 357940.24 668691.41
 157771.24 419115.64 662910.49
 84603.490 451474.54 654990.83
 325593.40 -293663.56 669141.72
 357940.24 -254422.06 668691.41
 385699.75 -184657.85 676119.21
 394574.54 -87029.339 690461.32
 378386.48 32810.665 704093.13
 334988.76 162748.27 708022.27
 267303.04 285692.67 697802.83
 184657.85 385699.75 676119.21
 102768.10 453708.12 650836.12
 44394.698 488191.13 632217.16
 252319.45 -388310.25 652341.97
 272219.19 -345570.33 668189.99
 285692.67 -267303.04 697802.82
 282701.33 -154298.33 732305.93
 259171.45 -12814.775 756746.95
 214838.91 140543.97 757688.35
 154298.33 282701.33 732305.93
 87029.338 394574.54 690461.32
 25664.434 468234.95 648149.19
 -14950.947 504892.71 620370.71
 170025.43 -456994.62 634229.67
 171603.73 -415203.00 661935.52
 162748.27 -334988.76 708022.27
 140543.97 -214838.91 757688.35
 105700.01 -61311.915 790612.65
 61311.916 105700.01 790612.65
 12814.773 259171.45 756746.95
 -32810.664 378386.48 704093.13
 -68506.226 456358.67 653485.78
 -88348.422 495537.47 621801.55
 88348.422 -495537.47 621801.55
 68506.226 -456358.67 653485.78
 32810.665 -378386.48 704093.13
 -12814.775 -259171.45 756746.95
 -61311.914 -105700.01 790612.65
 -105700.01 61311.915 790612.65
 -140543.97 214838.91 757688.35
 -162748.27 334988.76 708022.27
 -171603.73 415203.00 661935.52
 -170025.43 456994.62 634229.67
 14950.947 -504892.71 620370.71
 -25664.433 -468234.95 648149.19
 -87029.339 -394574.54 690461.32
 -154298.33 -282701.33 732305.93
 -214838.91 -140543.97 757688.35
 -259171.45 12814.775 756746.95
 -282701.34 154298.33 732305.93
 -285692.67 267303.04 697802.82
 -272219.19 345570.33 668189.99
 -252319.45 388310.24 652341.97
 -44394.697 -488191.13 632217.16
 -102768.10 -453708.12 650836.12
 -184657.85 -385699.75 676119.21
 -267303.04 -285692.67 697802.82
 -334988.76 -162748.27 708022.27
 -378386.48 -32810.665 704093.13
 -394574.54 87029.339 690461.32
 -385699.75 184657.85 676119.21
 -357940.24 254422.06 668691.41
 -325593.40 293663.56 669141.72
 -84603.491 -451474.54 654990.83
 -157771.23 -419115.64 662910.49
 -254422.06 -357940.24 668691.41
 -345570.33 -272219.19 668189.99
 -415203.00 -171603.73 661935.52
 -456358.67 -68506.226 653485.78
 -468234.95 25664.433 648149.19
 -453708.12 102768.10 650836.12
 -419115.64 157771.24 662910.49
 -380232.04 187549.75 678416.31
 -101572.62 -410355.75 679184.19
 -187549.75 -380232.04 678416.31
 -293663.56 -325593.40 669141.73
 -388310.24 -252319.45 652341.97
 -456994.62 -170025.43 634229.67
 -495537.47 -88348.422 621801.55
 -504892.71 -14950.947 620370.71
 -488191.13 44394.698 632217.16
 -451474.54 84603.490 654990.83
 -410355.75 101572.62 679184.19
 341417.41 -158189.48 705981.76
 388818.47 -137411.74 685520.39
 435491.32 -95094.358 664307.44
 464082.43 -36522.357 650610.19
 468317.22 33040.537 647755.59
 445748.16 108744.97 655349.61
 395769.32 184999.90 670180.34
 321264.60 254665.34 686974.98
 233162.35 309392.48 699936.86
 158189.48 341417.41 705981.76
 309392.48 -233162.35 699936.86
 352416.72 -201243.65 689422.55
 395440.87 -145449.64 680052.15
 421417.92 -70743.141 676315.27
 423855.56 17496.440 678262.73
 400292.57 112627.86 683433.12
 351054.52 206322.27 688615.89
 280721.51 289201.33 691055.73
 201243.65 352416.72 689422.55
 137411.74 388818.47 685520.39
 254665.34 -321264.60 686974.98
 289201.33 -280721.51 691055.73
 323617.98 -211191.71 700478.03
 343270.99 -117913.31 712924.59
 342146.17 -7124.6582 723108.04
 318146.94 111597.05 725485.10
 272583.43 225928.08 717394.44
 211191.71 323617.98 700478.03
 145449.64 395440.87 680052.15
 95094.357 435491.32 664307.44
 184999.90 -395769.31 670180.34
 206322.27 -351054.52 688615.89
 225928.08 -272583.42 717394.44
 234027.76 -164997.32 746998.59
 226710.76 -35589.731 766378.24
 203053.90 102840.78 766937.34
 164997.32 234027.76 746998.59
 117913.31 343270.99 712924.59
 70743.139 421417.92 676315.27
 36522.358 464082.43 650610.19
 108744.97 -445748.16 655349.61
 112627.86 -400292.57 683433.12
 111597.05 -318146.94 725485.10
 102840.78 -203053.90 766937.34
 86320.508 -63174.966 792816.31
 63174.964 86320.509 792816.31
 35589.733 226710.76 766378.24
 7124.6555 342146.17 723108.04
 -17496.438 423855.56 678262.73
 -33040.538 468317.22 647755.59
 33040.538 -468317.22 647755.59
 17496.438 -423855.56 678262.73
 -7124.6554 -342146.17 723108.04
 -35589.733 -226710.76 766378.24
 -63174.965 -86320.508 792816.31
 -86320.507 63174.965 792816.31
 -102840.79 203053.90 766937.34
 -111597.05 318146.94 725485.10
 -112627.86 400292.57 683433.12
 -108744.97 445748.16 655349.61
 -36522.358 -464082.43 650610.19
 -70743.140 -421417.92 676315.27
 -117913.31 -343270.99 712924.60
 -164997.32 -234027.76 746998.59
 -203053.90 -102840.78 766937.34
 -226710.76 35589.732 766378.24
 -234027.76 164997.32 746998.59
 -225928.09 272583.42 717394.44
 -206322.27 351054.52 688615.89
 -184999.90 395769.32 670180.34
 -95094.358 -435491.32 664307.44
 -145449.64 -395440.87 680052.15
 -211191.71 -323617.98 700478.03
 -272583.42 -225928.08 717394.44
 -318146.94 -111597.05 725485.10
 -342146.17 7124.6571 723108.04
 -343270.99 117913.31 712924.59
 -323617.97 211191.71 700478.03
 -289201.33 280721.51 691055.73
 -254665.34 321264.60 686974.98
 -137411.74 -388818.47 685520.39
 -201243.65 -352416.72 689422.55
 -280721.51 -289201.33 691055.73
 -351054.52 -206322.27 688615.89
 -400292.57 -112627.86 683433.12
 -423855.57 -17496.439 678262.73
 -421417.92 70743.141 676315.27
 -395440.87 145449.64 680052.15
 -352416.72 201243.65 689422.55
 -309392.48 233162.35 699936.86
 -158189.48 -341417.41 705981.76
 -233162.35 -309392.48 699936.86
 -321264.60 -254665.34 686974.98
 -395769.32 -184999.90 670180.34
 -445748.16 -108744.97 655349.61
 -468317.22 -33040.537 647755.59
 -464082.43 36522.357 650610.19
 -435491.32 95094.358 664307.44
 -388818.47 137411.74 685520.39
 -341417.41 158189.48 705981.76
 275819.45 -215444.09 719379.92
 330911.02 -189868.89 703169.75
 389058.19 -143394.68 684157.65
 430721.09 -82740.971 669054.01
 448920.66 -13849.437 662026.01
 441536.42 58539.592 664543.98
 408367.64 129880.39 675549.37
 351646.44 194687.58 691694.68
 279802.67 245935.50 707973.30
 215444.09 275819.45 719379.92
 245935.50 -279802.67 707973.30
 294390.73 -245287.14 702259.43
 347227.26 -186909.50 696058.95
 385667.76 -111391.85 691991.50
 402355.19 -25048.186 691001.37
 394745.41 65732.582 692715.88
 362924.86 154150.26 696077.04
 310078.58 232894.93 699722.25
 245287.14 294390.73 702259.43
 189868.89 330911.02 703169.75
 194687.58 -351646.44 691694.68
 232894.93 -310078.58 699722.25
 275396.28 -239596.11 711864.17
 306618.57 -147220.75 724093.30
 319726.07 -40194.138 732229.25
 312126.54 72587.276 733013.03
 284189.71 181057.94 725571.66
 239596.11 275396.28 711864.17
 186909.50 347227.26 696058.95
 143394.68 389058.19 684157.65
 129880.39 -408367.64 675549.37
 154150.26 -362924.86 696077.04
 181057.93 -284189.71 725571.66
 200337.93 -178836.43 753579.62
 207217.59 -55046.911 770733.88
 199874.25 75748.039 770916.68
 178836.43 200337.93 753579.62
 147220.75 306618.57 724093.30
 111391.85 385667.75 691991.50
 82740.971 430721.09 669054.01
 58539.593 -441536.42 664543.98
 65732.579 -394745.41 692715.88
 72587.280 -312126.54 733013.03
 75748.035 -199874.25 770916.68
 73915.790 -66822.728 793770.23
 66822.729 73915.788 793770.23
 55046.908 207217.59 770733.88
 40194.141 319726.07 732229.25
 25048.184 402355.19 691001.37
 13849.438 448920.66 662026.01
 -13849.438 -448920.66 662026.01
 -25048.183 -402355.19 691001.37
 -40194.142 -319726.07 732229.25
 -55046.908 -207217.59 770733.88
 -66822.729 -73915.790 793770.23
 -73915.790 66822.730 793770.23
 -75748.036 199874.25 770916.68
 -72587.280 312126.54 733013.03
 -65732.580 394745.41 692715.88
 -58539.593 441536.42 664543.98
 -82740.971 -430721.09 669054.01
 -111391.85 -385667.75 691991.50
 -147220.75 -306618.57 724093.30
 -178836.43 -200337.93 753579.62
 -199874.25 -75748.036 770916.68
 -207217.59 55046.909 770733.88
 -200337.93 178836.43 753579.62
 -181057.93 284189.72 725571.66
 -154150.26 362924.86 696077.04
 -129880.39 408367.64 675549.37
 -143394.68 -389058.19 684157.65
 -186909.50 -347227.26 696058.95
 -239596.11 -275396.28 711864.17
 -284189.71 -181057.94 725571.66
 -312126.54 -72587.279 733013.03
 -319726.07 40194.140 732229.25
 -306618.57 147220.75 724093.30
 -275396.29 239596.11 711864.17
 -232894.93 310078.58 699722.25
 -194687.58 351646.44 691694.68
 -189868.89 -330911.02 703169.75
 -245287.14 -294390.73 702259.43
 -310078.58 -232894.93 699722.25
 -362924.86 -154150.26 696077.04
 -394745.41 -65732.580 692715.88
 -402355.19 25048.185 691001.37
 -385667.76 111391.85 691991.50
 -347227.26 186909.50 696058.95
 -294390.73 245287.14 702259.43
 -245935.50 279802.67 707973.30
 -215444.09 -275819.45 719379.92
 -279802.67 -245935.50 707973.30
 -351646.44 -194687.58 691694.68
 -408367.64 -129880.39 675549.37
 -441536.42 -58539.593 664543.98
 -448920.66 13849.438 662026.01
 -430721.09 82740.971 669054.01
 -389058.19 143394.68 684157.65
 -330911.02 189868.89 703169.75
 -275819.45 215444.09 719379.92
 215444.09 -275819.45 719379.92
 279802.67 -245935.50 707973.30
 351646.44 -194687.58 691694.68
 408367.63 -129880.39 675549.38
 441536.42 -58539.593 664543.98
 448920.66 13849.438 662026.01
 430721.09 82740.971 669054.01
 389058.19 143394.68 684157.65
 330911.02 189868.89 703169.75
 275819.45 215444.09 719379.92
 189868.89 -330911.02 703169.75
 245287.14 -294390.73 702259.43
 310078.58 -232894.93 699722.25
 362924.86 -154150.26 696077.04
 394745.41 -65732.580 692715.88
 402355.19 25048.184 691001.37
 385667.76 111391.85 691991.50
 347227.26 186909.50 696058.96
 294390.74 245287.14 702259.43
 245935.50 279802.67 707973.30
 143394.68 -389058.19 684157.65
 186909.50 -347227.26 696058.96
 239596.11 -275396.28 711864.17
 284189.71 -181057.94 725571.66
 312126.54 -72587.279 733013.03
 319726.07 40194.141 732229.25
 306618.57 147220.75 724093.30
 275396.28 239596.11 711864.17
 232894.93 310078.58 699722.25
 194687.58 351646.44 691694.68
 82740.972 -430721.09 669054.01
 111391.85 -385667.76 691991.50
 147220.75 -306618.57 724093.30
 178836.43 -200337.93 753579.62
 199874.25 -75748.036 770916.68
 207217.59 55046.908 770733.88
 200337.93 178836.43 753579.62
 181057.93 284189.71 725571.66
 154150.26 362924.86 696077.04
 129880.39 408367.63 675549.38
 13849.437 -448920.66 662026.01
 25048.187 -402355.19 691001.37
 40194.139 -319726.07 732229.25
 55046.910 -207217.59 770733.88
 66822.728 -73915.790 793770.23
 73915.790 66822.730 793770.23
 75748.037 199874.25 770916.68
 72587.278 312126.54 733013.03
 65732.581 394745.41 692715.88
 58539.592 441536.42 664543.98
 -58539.592 -441536.42 664543.98
 -65732.582 -394745.40 692715.88
 -72587.277 -312126.54 733013.03
 -75748.038 -199874.25 770916.68
 -73915.789 -66822.728 793770.23
 -66822.729 73915.788 793770.23
 -55046.909 207217.59 770733.88
 -40194.139 319726.07 732229.25
 -25048.186 402355.19 691001.37
 -13849.437 448920.66 662026.01
 -129880.39 -408367.63 675549.38
 -154150.26 -362924.86 696077.04
 -181057.94 -284189.71 725571.66
 -200337.93 -178836.43 753579.62
 -207217.59 -55046.911 770733.88
 -199874.25 75748.038 770916.68
 -178836.43 200337.93 753579.62
 -147220.75 306618.57 724093.30
 -111391.85 385667.76 691991.50
 -82740.971 430721.09 669054.01
 -194687.58 -351646.44 691694.68
 -232894.93 -310078.58 699722.25
 -275396.28 -239596.11 711864.17
 -306618.57 -147220.75 724093.30
 -319726.07 -40194.138 732229.25
 -312126.54 72587.277 733013.03
 -284189.71 181057.93 725571.66
 -239596.11 275396.29 711864.17
 -186909.50 347227.26 696058.96
 -143394.68 389058.19 684157.65
 -245935.50 -279802.67 707973.30
 -294390.73 -245287.15 702259.43
 -347227.26 -186909.50 696058.95
 -385667.76 -111391.85 691991.50
 -402355.19 -25048.187 691001.37
 -394745.41 65732.582 692715.88
 -362924.86 154150.26 696077.04
 -310078.58 232894.93 699722.25
 -245287.14 294390.74 702259.43
 -189868.89 330911.02 703169.75
 -275819.45 -215444.09 719379.92
 -330911.02 -189868.89 703169.75
 -389058.19 -143394.68 684157.65
 -430721.09 -82740.971 669054.01
 -448920.66 -13849.437 662026.01
 -441536.42 58539.592 664543.98
 -408367.63 129880.39 675549.38
 -351646.44 194687.58 691694.68
 -279802.67 245935.50 707973.30
 -215444.09 275819.45 719379.92
 158189.48 -341417.41 705981.76
 233162.35 -309392.48 699936.86
 321264.60 -254665.34 686974.98
 395769.32 -184999.90 670180.34
 445748.16 -108744.97 655349.61
 468317.22 -33040.537 647755.59
 464082.43 36522.358 650610.19
 435491.32 95094.357 664307.44
 388818.47 137411.74 685520.39
 341417.41 158189.48 705981.76
 137411.74 -388818.47 685520.39
 201243.65 -352416.72 689422.55
 280721.51 -289201.33 691055.73
 351054.52 -206322.27 688615.89
 400292.57 -112627.86 683433.12
 423855.56 -17496.439 678262.73
 421417.92 70743.140 676315.27
 395440.87 145449.64 680052.14
 352416.72 201243.65 689422.55
 309392.48 233162.35 699936.86
 95094.357 -435491.32 664307.44
 145449.64 -395440.87 680052.15
 211191.71 -323617.98 700478.03
 272583.43 -225928.08 717394.44
 318146.94 -111597.05 725485.10
 342146.17 7124.6559 723108.04
 343270.99 117913.31 712924.59
 323617.98 211191.71 700478.03
 289201.33 280721.51 691055.73
 254665.34 321264.60 686974.98
 36522.357 -464082.43 650610.19
 70743.140 -421417.92 676315.27
 117913.31 -343270.99 712924.60
 164997.32 -234027.76 746998.59
 203053.90 -102840.78 766937.34
 226710.76 35589.733 766378.24
 234027.76 164997.32 746998.59
 225928.08 272583.43 717394.44
 206322.27 351054.52 688615.89
 184999.90 395769.32 670180.34
 -33040.537 -468317.22 647755.59
 -17496.440 -423855.56 678262.73
 7124.6578 -342146.17 723108.04
 35589.731 -226710.75 766378.24
 63174.966 -86320.508 792816.31
 86320.508 63174.964 792816.31
 102840.78 203053.90 766937.34
 111597.05 318146.94 725485.10
 112627.86 400292.57 683433.12
 108744.97 445748.16 655349.61
 -108744.97 -445748.16 655349.61
 -112627.86 -400292.57 683433.12
 -111597.05 -318146.94 725485.10
 -102840.78 -203053.90 766937.34
 -86320.509 -63174.966 792816.30
 -63174.965 86320.510 792816.30
 -35589.732 226710.76 766378.24
 -7124.6570 342146.17 723108.04
 17496.439 423855.56 678262.73
 33040.537 468317.22 647755.59
 -184999.90 -395769.32 670180.34
 -206322.27 -351054.52 688615.89
 -225928.08 -272583.43 717394.44
 -234027.76 -164997.32 746998.59
 -226710.76 -35589.730 766378.24
 -203053.90 102840.78 766937.34
 -164997.32 234027.76 746998.59
 -117913.31 343270.99 712924.59
 -70743.140 421417.92 676315.27
 -36522.357 464082.43 650610.19
 -254665.34 -321264.60 686974.98
 -289201.33 -280721.51 691055.73
 -323617.98 -211191.71 700478.03
 -343270.99 -117913.31 712924.60
 -342146.17 -7124.6587 723108.04
 -318146.94 111597.05 725485.10
 -272583.43 225928.08 717394.44
 -211191.71 323617.98 700478.03
 -145449.64 395440.87 680052.14
 -95094.357 435491.32 664307.44
 -309392.48 -233162.35 699936.86
 -352416.72 -201243.65 689422.55
 -395440.87 -145449.64 680052.15
 -421417.92 -70743.141 676315.27
 -423855.56 17496.441 678262.73
 -400292.57 112627.86 683433.12
 -351054.52 206322.27 688615.89
 -280721.51 289201.33 691055.73
 -201243.65 352416.72 689422.55
 -137411.74 388818.47 685520.39
 -341417.41 -158189.48 705981.76
 -388818.47 -137411.74 685520.39
 -435491.32 -95094.357 664307.44
 -464082.43 -36522.357 650610.19
 -468317.22 33040.536 647755.59
 -445748.16 108744.97 655349.61
 -395769.32 184999.90 670180.34
 -321264.60 254665.34 686974.98
 -233162.35 309392.48 699936.86
 -158189.48 341417.41 705981.76
 101572.62 -410355.75 679184.19
 187549.75 -380232.04 678416.31
 293663.56 -325593.40 669141.72
 388310.24 -252319.45 652341.97
 456994.62 -170025.43 634229.67
 495537.47 -88348.422 621801.55
 504892.71 -14950.947 620370.71
 488191.13 44394.698 632217.16
 451474.54 84603.490 654990.83
 410355.75 101572.62 679184.19
 84603.490 -451474.54 654990.83
 157771.24 -419115.64 662910.49
 254422.06 -357940.24 668691.41
 345570.33 -272219.19 668189.99
 415203.00 -171603.73 661935.52
 456358.67 -68506.226 653485.78
 468234.95 25664.435 648149.19
 453708.12 102768.10 650836.12
 419115.64 157771.24 662910.49
 380232.04 187549.75 678416.31
 44394.698 -488191.13 632217.16
 102768.10 -453708.12 650836.12
 184657.85 -385699.75 676119.21
 267303.04 -285692.67 697802.82
 334988.76 -162748.27 708022.27
 378386.48 -32810.664 704093.13
 394574.54 87029.337 690461.32
 385699.75 184657.85 676119.21
 357940.24 254422.06 668691.41
 325593.40 293663.56 669141.72
 -14950.947 -504892.71 620370.71
 25664.433 -468234.95 648149.19
 87029.339 -394574.54 690461.31
 154298.33 -282701.33 732305.93
 214838.91 -140543.97 757688.35
 259171.45 12814.773 756746.95
 282701.33 154298.34 732305.93
 285692.67 267303.04 697802.83
 272219.19 345570.33 668189.99
 252319.45 388310.24 652341.97
 -88348.423 -495537.47 621801.55
 -68506.224 -456358.67 653485.77
 -32810.666 -378386.47 704093.13
 12814.775 -259171.45 756746.95
 61311.915 -105700.01 790612.65
 105700.01 61311.916 790612.65
 140543.97 214838.91 757688.35
 162748.27 334988.76 708022.27
 171603.73 415203.00 661935.52
 170025.43 456994.62 634229.67
 -170025.42 -456994.62 634229.67
 -171603.73 -415203.00 661935.52
 -162748.26 -334988.76 708022.27
 -140543.97 -214838.91 757688.35
 -105700.00 -61311.915 790612.65
 -61311.915 105700.00 790612.65
 -12814.775 259171.45 756746.95
 32810.666 378386.48 704093.13
 68506.225 456358.67 653485.77
 88348.423 495537.47 621801.55
 -252319.45 -388310.24 652341.97
 -272219.19 -345570.33 668189.99
 -285692.67 -267303.04 697802.83
 -282701.33 -154298.33 732305.93
 -259171.45 -12814.775 756746.95
 -214838.91 140543.97 757688.35
 -154298.33 282701.33 732305.93
 -87029.339 394574.54 690461.32
 -25664.433 468234.95 648149.19
 14950.947 504892.71 620370.71
 -325593.40 -293663.56 669141.72
 -357940.24 -254422.06 668691.41
 -385699.75 -184657.85 676119.21
 -394574.54 -87029.338 690461.32
 -378386.48 32810.666 704093.13
 -334988.76 162748.27 708022.27
 -267303.04 285692.67 697802.82
 -184657.85 385699.75 676119.21
 -102768.10 453708.12 650836.12
 -44394.698 488191.13 632217.16
 -380232.04 -187549.75 678416.31
 -419115.64 -157771.24 662910.49
 -453708.12 -102768.10 650836.12
 -468234.95 -25664.434 648149.19
 -456358.67 68506.225 653485.77
 -415203.00 171603.73 661935.52
 -345570.33 272219.19 668189.99
 -254422.06 357940.24 668691.41
 -157771.24 419115.64 662910.49
 -84603.490 451474.54 654990.83
 -410355.75 -101572.62 679184.19
 -451474.54 -84603.490 654990.83
 -488191.13 -44394.698 632217.16
 -504892.71 14950.947 620370.71
 -495537.47 88348.423 621801.55
 -456994.62 170025.43 634229.67
 -388310.24 252319.45 652341.97
 -293663.56 325593.40 669141.72
 -187549.75 380232.04 678416.31
 -101572.62 410355.75 679184.19
 47270.846 -475426.35 641666.00
 143267.99 -451966.09 644360.88
 266279.25 -402056.41 638314.97
 380459.44 -328226.89 622509.22
 467684.57 -240842.92 602715.38
 521975.27 -152240.48 586825.91
 544322.52 -72776.641 581735.81
 538677.89 -9779.2349 591380.16
 511162.23 31402.526 614595.04
 475426.35 47270.846 641666.00
 31402.525 -511162.23 614595.04
 114427.13 -487340.89 624023.47
 228820.01 -432879.83 632658.25
 341712.00 -347495.67 634412.86
 432910.37 -240675.37 628222.87
 492297.67 -127969.54 617468.06
 518149.43 -24911.378 609016.08
 514181.96 57728.392 610151.08
 487340.89 114427.13 624023.47
 451966.09 143267.99 644360.88
 -9779.2341 -538677.89 591380.16
 57728.390 -514181.96 610151.08
 157517.90 -454962.01 638903.50
 264155.65 -356092.73 665897.71
 357401.29 -224649.51 679556.41
 422639.65 -80435.552 674467.08
 454178.01 52480.095 656481.66
 454962.01 157517.90 638903.50
 432879.83 228820.01 632658.25
 402056.41 266279.25 638314.97
 -72776.642 -544322.52 581735.81
 -24911.376 -518149.43 609016.08
 52480.093 -454178.01 656481.67
 143578.41 -343018.80 708324.32
 232060.22 -188594.49 742010.90
 301758.46 -15023.186 740753.76
 343018.80 143578.41 708324.32
 356092.73 264155.65 665897.71
 347495.67 341712.00 634412.86
 328226.89 380459.44 622509.22
 -152240.48 -521975.27 586825.91
 -127969.54 -492297.67 617468.06
 -80435.550 -422639.65 674467.08
 -15023.188 -301758.46 740753.76
 59914.104 -131827.27 786785.78
 131827.27 59914.103 786785.78
 188594.48 232060.22 742010.90
 224649.51 357401.29 679556.41
 240675.37 432910.37 628222.87
 240842.92 467684.57 602715.38
 -240842.92 -467684.57 602715.38
 -240675.37 -432910.37 628222.87
 -224649.51 -357401.29 679556.41
 -188594.48 -232060.22 742010.90
 -131827.27 -59914.103 786785.78
 -59914.104 131827.27 786785.78
 15023.188 301758.46 740753.76
 80435.550 422639.65 674467.08
 127969.54 492297.67 617468.06
 152240.48 521975.27 586825.91
 -328226.89 -380459.44 622509.22
 -347495.67 -341712.00 634412.86
 -356092.73 -264155.65 665897.71
 -343018.80 -143578.41 708324.32
 -301758.46 15023.187 740753.76
 -232060.22 188594.49 742010.90
 -143578.41 343018.80 708324.32
 -52480.093 454178.01 656481.67
 24911.376 518149.43 609016.08
 72776.642 544322.52 581735.81
 -402056.41 -266279.25 638314.97
 -432879.83 -228820.01 632658.25
 -454962.01 -157517.90 638903.50
 -454178.01 -52480.095 656481.67
 -422639.65 80435.551 674467.08
 -357401.29 224649.51 679556.41
 -264155.65 356092.74 665897.71
 -157517.90 454962.01 638903.50
 -57728.390 514181.96 610151.08
 9779.2342 538677.89 591380.16
 -451966.09 -143267.99 644360.88
 -487340.89 -114427.13 624023.47
 -514181.96 -57728.392 610151.08
 -518149.43 24911.378 609016.08
 -492297.67 127969.54 617468.06
 -432910.37 240675.37 628222.87
 -341712.00 347495.67 634412.86
 -228820.01 432879.83 632658.25
 -114427.13 487340.89 624023.47
 -31402.525 511162.23 614595.04
 -475426.35 -47270.846 641666.00
 -511162.23 -31402.526 614595.04
 -538677.89 9779.2351 591380.16
 -544322.52 72776.641 581735.81
 -521975.27 152240.48 586825.91
 -467684.57 240842.92 602715.38
 -380459.44 328226.89 622509.22
 -266279.25 402056.41 638314.97
 -143267.99 451966.09 644360.88
 -47270.846 475426.35 641666.00
 5699.0172 -524833.57 603752.64
 110104.41 -509538.80 606833.78
 243929.59 -465933.41 602830.34
 370998.13 -394173.40 589056.63
 471497.50 -304491.49 570065.82
 537830.97 -210801.28 553444.36
 570475.94 -125612.25 546606.59
 573897.86 -57807.695 554346.03