# OOMMF OVF 2.0
#
# Segment count: 1
#
# Begin: Segment
# Begin: Header
#
# Title: Oxs_MinDriver::Magnetization
# Desc: Oxs vector field output
# Desc:  MIF source file: /home/ryan/Git/joommf/tools/omfvis/cube_example.mif
# Desc:  Iteration: 5161, State id: 10982
# Desc:  Stage: 27, Stage iteration: 35
# Desc:  Stage simulation time: 0 s
# Desc:  Total simulation time: -2 s
# meshunit: m
# meshtype: rectangular
# xbase: 2.5000000000000001e-09
# ybase: 2.5000000000000001e-09
# zbase: 2.5000000000000001e-09
# xnodes: 10
# ynodes: 10
# znodes: 10
# xstepsize: 5.0000000000000001e-09
# ystepsize: 5.0000000000000001e-09
# zstepsize: 5.0000000000000001e-09
# xmin: 0
# ymin: 0
# zmin: 0
# xmax: 4.9999999999999998e-08
# ymax: 4.9999999999999998e-08
# zmax: 4.9999999999999998e-08
# valuedim: 3
# valuelabels: Magnetization_x Magnetization_y Magnetization_z
# valueunits: A/m A/m A/m
#
# End: Header
#
# Begin: Data Text
 277851.75 277851.88 696847.71
 246004.29 284219.90 706187.61
 191784.06 290868.73 720148.78
 121815.59 295848.26 733235.82
 41780.332 298479.23 741056.38
 -41780.578 298479.20 741056.38
 -121815.82 295848.17 733235.82
 -191784.24 290868.60 720148.78
 -246004.43 284219.75 706187.62
 -277851.86 277851.72 696847.73
 284219.78 246004.46 706187.60
 254539.91 254540.07 714435.99
 200174.16 262502.65 728713.02
 127849.78 268350.83 742726.24
 43969.099 271444.22 751255.45
 -43969.320 271444.18 751255.45
 -127849.98 268350.72 742726.24
 -200174.33 262502.49 728713.03
 -254540.04 254539.87 714436.02
 -284219.88 246004.25 706187.63
 290868.63 191784.27 720148.76
 262502.53 200174.37 728713.01
 208040.28 208040.44 743934.42
 133632.63 213805.50 759229.56
 46094.843 216857.54 768666.42
 -46095.002 216857.49 768666.43
 -133632.78 213805.36 759229.58
 -208040.40 208040.23 743934.44
 -262502.62 200174.12 728713.04
 -290868.70 191784.02 720148.80
 295848.21 121815.85 733235.80
 268350.77 127850.02 742726.22
 213805.41 133632.82 759229.55
 137903.31 137903.42 775864.24
 47674.348 140171.01 786180.16
 -47674.411 140170.95 786180.17
 -137903.37 137903.26 775864.26
 -213805.46 133632.58 759229.58
 -268350.80 127849.73 742726.26
 -295848.23 121815.55 733235.84
 298479.23 41780.613 741056.36
 271444.23 43969.360 751255.43
 216857.54 46095.047 768666.41
 140171.01 47674.462 786180.15
 48515.160 48515.156 797052.42
 -48515.103 48515.094 797052.43
 -140170.96 47674.286 786180.17
 -216857.50 46094.786 768666.44
 -271444.19 43969.048 751255.47
 -298479.20 41780.285 741056.39
 298479.26 -41780.297 741056.37
 271444.27 -43969.061 751255.44
 216857.59 -46094.798 768666.41
 140171.07 -47674.299 786180.15
 48515.220 -48515.106 797052.42
 -48515.040 -48515.167 797052.43
 -140170.90 -47674.473 786180.17
 -216857.45 -46095.058 768666.44
 -271444.15 -43969.369 751255.46
 -298479.17 -41780.622 741056.38
 295848.29 -121815.56 733235.81
 268350.87 -127849.75 742726.23
 213805.55 -133632.59 759229.56
 137903.47 -137903.27 775864.24
 47674.524 -140170.96 786180.16
 -47674.236 -140171.02 786180.17
 -137903.21 -137903.43 775864.26
 -213805.33 -133632.83 759229.58
 -268350.69 -127850.03 742726.25
 -295848.15 -121815.85 733235.82
 290868.75 -191784.03 720148.77
 262502.69 -200174.14 728713.01
 208040.48 -208040.25 743934.41
 133632.87 -213805.37 759229.56
 46095.103 -216857.50 768666.42
 -46094.741 -216857.55 768666.43
 -133632.54 -213805.51 759229.58
 -208040.20 -208040.45 743934.44
 -262502.46 -200174.37 728713.03
 -290868.58 -191784.28 720148.78
 284219.92 -246004.27 706187.61
 254540.10 -254539.89 714435.99
 200174.40 -262502.50 728713.01
 127850.07 -268350.74 742726.22
 43969.410 -271444.19 751255.44
 -43969.008 -271444.23 751255.45
 -127849.70 -268350.84 742726.25
 -200174.09 -262502.65 728713.04
 -254539.85 -254540.07 714436.02
 -284219.73 -246004.45 706187.62
 277851.90 -277851.74 696847.71
 246004.48 -284219.76 706187.60
 191784.31 -290868.61 720148.76
 121815.89 -295848.18 733235.80
 41780.659 -298479.21 741056.37
 -41780.250 -298479.24 741056.38
 -121815.51 -295848.26 733235.83
 -191783.99 -290868.73 720148.79
 -246004.23 -284219.90 706187.63
 -277851.71 -277851.88 696847.73
 224829.97 224830.10 734100.07
 201391.99 221723.14 741808.68
 157662.06 220749.89 752603.59
 100064.83 220494.44 762475.73
 34267.084 220409.18 768274.40
 -34267.326 220409.15 768274.40
 -100065.05 220494.36 762475.72
 -157662.24 220749.77 752603.59
 -201392.13 221722.99 741808.68
 -224830.07 224829.93 734100.09
 221723.02 201392.16 741808.67
 201328.12 201328.27 747618.83
 159082.93 201882.87 757585.59
 101460.59 202458.15 767278.60
 34816.589 202769.46 773092.72
 -34816.801 202769.42 773092.72
 -101460.78 202458.05 767278.60
 -159083.09 201882.71 757585.60
 -201328.24 201328.08 747618.85
 -221723.11 201391.96 741808.69
 220749.80 157662.27 752603.57
 201882.75 159083.12 757585.58
 160640.32 160640.47 767065.40
 102930.32 161748.57 776687.03
 35399.321 162295.76 782564.36
 -35399.474 162295.72 782564.36
 -102930.46 161748.45 776687.04
 -160640.44 160640.28 767065.41
 -201882.84 159082.89 757585.61
 -220749.87 157662.02 752603.60
 220494.39 100065.08 762475.71
 202458.08 101460.82 767278.58
 161748.49 102930.49 776687.03
 103942.57 103942.67 786378.96
 35800.370 104433.86 792345.82
 -35800.436 104433.81 792345.83
 -103942.63 103942.53 786378.97
 -161748.54 102930.28 776687.05
 -202458.12 101460.55 767278.61
 -220494.41 100064.79 762475.74
 220409.19 34267.357 768274.39
 202769.46 34816.832 773092.71
 162295.76 35399.512 782564.35
 104433.86 35800.474 792345.82
 35994.465 35994.470 798378.86
 -35994.428 35994.416 798378.86
 -104433.82 35800.320 792345.83
 -162295.73 35399.277 782564.37
 -202769.43 34816.547 773092.73
 -220409.16 34267.045 768274.41
 220409.21 -34267.057 768274.40
 202769.49 -34816.557 773092.71
 162295.81 -35399.288 782564.35
 104433.91 -35800.331 792345.82
 35994.521 -35994.425 798378.85
 -35994.376 -35994.479 798378.86
 -104433.77 -35800.482 792345.83
 -162295.69 -35399.519 782564.36
 -202769.39 -34816.840 773092.72
 -220409.13 -34267.363 768274.41
 220494.46 -100064.80 762475.72
 202458.19 -101460.56 767278.59
 161748.61 -102930.29 776687.03
 103942.72 -103942.54 786378.95
 35800.521 -104433.82 792345.82
 -35800.281 -104433.87 792345.83
 -103942.49 -103942.68 786378.97
 -161748.42 -102930.50 776687.04
 -202458.02 -101460.82 767278.60
 -220494.33 -100065.08 762475.72
 220749.92 -157662.04 752603.58
 201882.90 -159082.90 757585.59
 160640.51 -160640.29 767065.40
 102930.53 -161748.46 776687.03
 35399.556 -162295.73 782564.35
 -35399.242 -162295.77 782564.36
 -102930.24 -161748.58 776687.04
 -160640.25 -160640.47 767065.41
 -201882.69 -159083.12 757585.60
 -220749.75 -157662.27 752603.59
 221723.16 -201391.98 741808.68
 201328.29 -201328.10 747618.83
 159083.15 -201882.73 757585.58
 101460.85 -202458.06 767278.59
 34816.873 -202769.43 773092.71
 -34816.515 -202769.46 773092.72
 -101460.52 -202458.15 767278.61
 -159082.86 -201882.87 757585.61
 -201328.06 -201328.26 747618.85
 -221722.98 -201392.15 741808.68
 224830.11 -224829.95 734100.07
 201392.18 -221723.01 741808.67
 157662.30 -220749.78 752603.57
 100065.11 -220494.37 762475.71
 34267.394 -220409.16 768274.40
 -34267.016 -220409.19 768274.40
 -100064.76 -220494.44 762475.73
 -157662.00 -220749.89 752603.60
 -201391.94 -221723.13 741808.69
 -224829.92 -224830.08 734100.09
 158036.85 158036.98 768146.25
 141099.66 150407.66 772960.82
 110128.12 144431.81 779109.27
 69655.025 140503.93 784478.69
 23796.431 138528.52 787555.44
 -23796.665 138528.50 787555.44
 -69655.240 140503.86 784478.69
 -110128.30 144431.70 779109.26
 -141099.79 150407.51 772960.82
 -158036.95 158036.82 768146.27
 150407.54 141099.82 772960.81
 136353.05 136353.20 776412.04
 107564.40 131942.39 781678.39
 68398.782 128869.35 786583.94
 23416.629 127295.09 789460.34
 -23416.831 127295.06 789460.33
 -68398.967 128869.26 786583.94
 -107564.55 131942.25 781678.39
 -136353.17 136353.02 776412.05
 -150407.63 141099.62 772960.83
 144431.72 110128.32 779109.25
 131942.28 107564.58 781678.38
 104891.93 104892.07 786126.79
 67027.877 102872.55 790521.66
 22998.472 101795.34 793163.78
 -22998.618 101795.30 793163.78
 -67028.012 102872.44 790521.67
 -104892.04 104891.90 786126.80
 -131942.37 107564.36 781678.40
 -144431.79 110128.09 779109.28
 140503.89 69655.265 784478.68
 128869.29 68398.990 786583.93
 102872.47 67028.039 790521.66
 65926.504 65926.594 794548.54
 22652.222 65316.086 797007.33
 -22652.293 65316.044 797007.33
 -65926.568 65926.469 794548.54
 -102872.53 67027.846 790521.67
 -128869.33 68398.750 786583.95
 -140503.91 69654.995 784478.70
 138528.52 23796.686 787555.44
 127295.09 23416.857 789460.33
 101795.33 22998.641 793163.77
 65316.074 22652.322 797007.33
 22456.123 22456.133 799369.40
 -22456.106 22456.088 799369.41
 -65316.058 22652.191 797007.33
 -101795.31 22998.439 793163.78
 -127295.07 23416.601 789460.34
 -138528.50 23796.402 787555.45
 138528.55 -23796.411 787555.44
 127295.12 -23416.610 789460.33
 101795.36 -22998.446 793163.78
 65316.120 -22652.198 797007.33
 22456.165 -22456.094 799369.40
 -22456.059 -22456.138 799369.41
 -65316.019 -22652.326 797007.33
 -101795.27 -22998.645 793163.78
 -127295.04 -23416.860 789460.34
 -138528.48 -23796.690 787555.44
 140503.95 -69655.009 784478.69
 128869.37 -68398.762 786583.94
 102872.58 -67027.857 790521.66
 65926.621 -65926.479 794548.54
 22652.354 -65316.049 797007.33
 -22652.165 -65316.092 797007.33
 -65926.444 -65926.595 794548.54
 -102872.42 -67028.039 790521.67
 -128869.24 -68398.990 786583.94
 -140503.84 -69655.262 784478.69
 144431.83 -110128.10 779109.27
 131942.41 -107564.38 781678.39
 104892.09 -104891.91 786126.79
 67028.067 -102872.45 790521.66
 22998.670 -101795.31 793163.78
 -22998.415 -101795.34 793163.78
 -67027.825 -102872.55 790521.67
 -104891.88 -104892.06 786126.80
 -131942.24 -107564.57 781678.39
 -144431.68 -110128.31 779109.26
 150407.67 -141099.64 772960.82
 136353.21 -136353.04 776412.04
 107564.60 -131942.27 781678.38
 68399.014 -128869.27 786583.93
 23416.884 -127295.07 789460.33
 -23416.579 -127295.10 789460.34
 -68398.731 -128869.35 786583.95
 -107564.35 -131942.39 781678.40
 -136353.01 -136353.19 776412.05
 -150407.50 -141099.81 772960.82
 158036.99 -158036.84 768146.25
 141099.83 -150407.53 772960.81
 110128.34 -144431.71 779109.25
 69655.287 -140503.87 784478.68
 23796.713 -138528.51 787555.44
 -23796.381 -138528.53 787555.45
 -69654.977 -140503.93 784478.70
 -110128.07 -144431.80 779109.27
 -141099.61 -150407.65 772960.83
 -158036.81 -158036.96 768146.27
 91440.604 91440.726 789479.07
 81076.487 84772.543 791353.41
 62912.663 78919.428 793608.04
 39627.123 74903.466 795499.32
 13507.689 72872.599 796559.56
 -13507.918 72872.578 796559.55
 -39627.334 74903.398 795499.31
 -62912.842 78919.325 793608.04
 -81076.626 84772.413 791353.41
 -91440.707 91440.581 789479.08
 84772.434 81076.644 791353.41
 76424.024 76424.164 792665.58
 60028.308 71753.167 794511.22
 38050.444 68406.565 796161.23
 13003.378 66692.145 797109.20
 -13003.575 66692.114 797109.20
 -38050.627 68406.486 796161.23
 -60028.463 71753.041 794511.22
 -76424.146 76424.002 792665.58
 -84772.525 81076.465 791353.41
 78919.345 62912.860 793608.03
 71753.061 60028.479 794511.22
 56875.976 56876.108 795946.12
 36267.793 54496.562 797317.23
 12428.077 53247.435 798129.22
 -12428.222 53247.405 798129.22
 -36267.927 54496.464 797317.23
 -56876.090 56875.957 795946.13
 -71753.149 60028.287 794511.23
 -78919.411 62912.642 793608.04
 74903.417 39627.349 795499.31
 68406.503 38050.645 796161.23
 54496.485 36267.942 797317.23
 34876.055 34876.145 798478.12
 11972.388 34130.579 799181.94
 -11972.466 34130.540 799181.94
 -34876.127 34876.037 798478.13
 -54496.545 36267.772 797317.24
 -68406.549 38050.426 796161.23
 -74903.449 39627.103 795499.32
 72872.593 13507.933 796559.55
 66692.134 13003.588 797109.19
 53247.421 12428.239 798129.22
 34130.560 11972.482 799181.93
 11725.779 11725.800 799828.11
 -11725.782 11725.760 799828.11
 -34130.562 11972.368 799181.94
 -53247.419 12428.061 798129.22
 -66692.129 13003.358 797109.20
 -72872.585 13507.673 796559.56
 72872.614 -13507.677 796559.56
 66692.157 -13003.363 797109.20
 53247.455 -12428.063 798129.22
 34130.595 -11972.371 799181.93
 11725.818 -11725.763 799828.11
 -11725.745 -11725.800 799828.11
 -34130.523 -11972.483 799181.94
 -53247.390 -12428.240 798129.22
 -66692.099 -13003.587 797109.20
 -72872.565 -13507.933 796559.56
 74903.476 -39627.112 795499.32
 68406.580 -38050.433 796161.23
 54496.574 -36267.779 797317.23
 34876.162 -34876.041 798478.12
 11972.499 -34130.543 799181.94
 -11972.352 -34130.578 799181.94
 -34876.023 -34876.144 798478.13
 -54496.449 -36267.939 797317.24
 -68406.474 -38050.641 796161.23
 -74903.387 -39627.345 795499.31
 78919.437 -62912.654 793608.04
 71753.176 -60028.298 794511.22
 56876.121 -56875.964 795946.12
 36267.956 -54496.471 797317.23
 12428.256 -53247.405 798129.22
 -12428.046 -53247.437 798129.22
 -36267.758 -54496.558 797317.24
 -56875.945 -56876.102 795946.13
 -71753.029 -60028.473 794511.22
 -78919.315 -62912.851 793608.04
 84772.549 -81076.480 791353.41
 76424.172 -76424.015 792665.58
 60028.489 -71753.051 794511.22
 38050.658 -68406.490 796161.23
 13003.603 -66692.120 797109.19
 -13003.345 -66692.141 797109.20
 -38050.414 -68406.562 796161.23
 -60028.276 -71753.159 794511.23
 -76423.993 -76424.152 792665.58
 -84772.405 -81076.632 791353.41
 91440.731 -91440.596 789479.08
 81076.651 -84772.426 791353.41
 62912.869 -78919.335 793608.03
 39627.361 -74903.406 795499.31
 13507.948 -72872.580 796559.55
 -13507.660 -72872.599 796559.56
 -39627.092 -74903.460 795499.32
 -62912.632 -78919.419 793608.04
 -81076.457 -84772.532 791353.41
 -91440.573 -91440.711 789479.08
 29659.885 29660.008 798899.60
 26178.913 27120.035 799111.49
 20233.486 24807.953 799359.23
 12711.162 23200.563 799562.48
 4327.1582 22386.535 799675.01
 -4327.3899 22386.514 799675.01
 -12711.378 23200.503 799562.48
 -20233.671 24807.858 799359.22
 -26179.059 27119.914 799111.49
 -29659.997 29659.873 798899.60
 27119.925 26179.070 799111.49
 24357.578 24357.717 799258.04
 19073.930 22482.249 799456.52
 12067.044 21126.133 799629.96
 4119.7907 20431.256 799728.45
 -4119.9917 20431.233 799728.45
 -12067.231 21126.058 799629.96
 -19074.091 22482.134 799456.52
 -24357.707 24357.568 799258.04
 -27120.024 26178.902 799111.49
 24807.868 20233.681 799359.22
 22482.143 19074.101 799456.52
 17783.548 17783.680 799604.58
 11326.874 16806.757 799743.23
 3879.2702 16295.479 799824.61
 -3879.4214 16295.447 799824.61
 -11327.015 16806.670 799743.23
 -17783.670 17783.539 799604.58
 -22482.239 19073.922 799456.52
 -24807.943 20233.476 799359.23
 23200.511 12711.387 799562.48
 21126.067 12067.240 799629.96
 16806.676 11327.024 799743.23
 10749.971 10750.064 799855.53
 3689.4625 10442.866 799923.33
 -3689.5519 10442.832 799923.33
 -10750.054 10749.964 799855.53
 -16806.747 11326.868 799743.23
 -21126.123 12067.034 799629.96
 -23200.553 12711.155 799562.48
 22386.520 4327.3978 799675.01
 20431.237 4120.0005 799728.45
 16295.454 3879.4304 799824.61
 10442.838 3689.5615 799923.33
 3587.5492 3587.5789 799983.91
 -3587.5693 3587.5456 799983.91
 -10442.856 3689.4565 799923.33
 -16295.469 3879.2616 799824.61
 -20431.247 4119.7881 799728.45
 -22386.526 4327.1504 799675.01
 22386.538 -4327.1506 799675.01
 20431.262 -4119.7829 799728.45
 16295.483 -3879.2614 799824.61
 10442.871 -3689.4533 799923.33
 3587.5861 -3587.5388 799983.91
 -3587.5349 -3587.5768 799983.91
 -10442.823 -3689.5566 799923.33
 -16295.438 -3879.4235 799824.61
 -20431.224 -4119.9991 799728.45
 -22386.505 -4327.3923 799675.01
 23200.565 -12711.155 799562.48
 21126.135 -12067.037 799629.96
 16806.761 -11326.865 799743.23
 10750.067 -10749.962 799855.53
 3689.5664 -10442.829 799923.33
 -3689.4475 -10442.861 799923.33
 -10749.954 -10750.058 799855.53
 -16806.661 -11327.019 799743.23
 -21126.050 -12067.231 799629.96
 -23200.495 -12711.380 799562.48
 24807.953 -20233.479 799359.23
 22482.250 -19073.923 799456.52
 17783.681 -17783.540 799604.58
 11327.028 -16806.667 799743.23
 3879.4333 -16295.445 799824.61
 -3879.2536 -16295.473 799824.61
 -11326.859 -16806.751 799743.23
 -17783.531 -17783.671 799604.58
 -22482.125 -19074.092 799456.52
 -24807.851 -20233.671 799359.22
 27120.033 -26178.906 799111.49
 24357.717 -24357.572 799258.04
 19074.101 -22482.134 799456.52
 12067.241 -21126.059 799629.96
 4120.0065 -20431.228 799728.45
 -4119.7788 -20431.252 799728.45
 -12067.027 -21126.125 799629.96
 -19073.913 -22482.239 799456.52
 -24357.562 -24357.707 799258.04
 -27119.907 -26179.057 799111.49
 29660.005 -29659.878 798899.60
 26179.068 -27119.918 799111.49
 20233.680 -24807.860 799359.22
 12711.389 -23200.502 799562.48
 4327.4010 -22386.512 799675.01
 -4327.1435 -22386.529 799675.01
 -12711.147 -23200.555 799562.48
 -20233.469 -24807.943 799359.23
 -26178.894 -27120.022 799111.49
 -29659.866 -29659.994 798899.60
 -29659.996 -29659.868 798899.60
 -26179.060 -27119.909 799111.49
 -20233.673 -24807.853 799359.22
 -12711.383 -23200.497 799562.48
 -4327.3961 -22386.507 799675.01
 4327.1492 -22386.527 799675.01
 12711.152 -23200.555 799562.48
 20233.474 -24807.944 799359.23
 26178.900 -27120.025 799111.49
 29659.871 -29659.997 798899.60
 -27120.025 -26178.897 799111.49
 -24357.708 -24357.562 799258.04
 -19074.096 -22482.128 799456.52
 -12067.235 -21126.052 799629.96
 -4119.9995 -20431.224 799728.45
 4119.7829 -20431.249 799728.45
 12067.033 -21126.124 799629.96
 19073.918 -22482.241 799456.52
 24357.566 -24357.707 799258.04
 27119.912 -26179.060 799111.49
 -24807.945 -20233.471 799359.23
 -22482.243 -19073.915 799456.52
 -17783.673 -17783.533 799604.58
 -11327.022 -16806.662 799743.23
 -3879.4273 -16295.440 799824.61
 3879.2602 -16295.470 799824.61
 11326.865 -16806.749 799743.23
 17783.537 -17783.669 799604.58
 22482.131 -19074.094 799456.52
 24807.857 -20233.671 799359.22
 -23200.558 -12711.148 799562.48
 -21126.128 -12067.030 799629.96
 -16806.754 -11326.859 799743.23
 -10750.060 -10749.956 799855.53
 -3689.5606 -10442.825 799923.33
 3689.4556 -10442.856 799923.33
 10749.960 -10750.055 799855.53
 16806.668 -11327.019 799743.23
 21126.057 -12067.229 799629.96
 23200.501 -12711.381 799562.48
 -22386.532 -4327.1454 799675.01
 -20431.254 -4119.7777 799728.45
 -16295.476 -3879.2566 799824.61
 -10442.864 -3689.4487 799923.33
 -3587.5764 -3587.5343 799983.91
 3587.5397 -3587.5731 799983.91
 10442.831 -3689.5537 799923.33
 16295.445 -3879.4199 799824.61
 20431.230 -4119.9977 799728.45
 22386.512 -4327.3899 799675.01
 -22386.513 4327.4012 799675.01
 -20431.231 4120.0038 799728.45
 -16295.447 3879.4340 799824.61
 -10442.830 3689.5654 799923.33
 -3587.5436 3587.5829 799983.91
 3587.5791 3587.5493 799983.91
 10442.863 3689.4612 799923.33
 16295.477 3879.2650 799824.61
 20431.255 4119.7926 799728.45
 22386.533 4327.1543 799675.01
 -23200.504 12711.388 799562.48
 -21126.061 12067.241 799629.96
 -16806.669 11327.027 799743.23
 -10749.964 10750.066 799855.53
 -3689.4550 10442.870 799923.33
 3689.5591 10442.836 799923.33
 10750.062 10749.968 799855.53
 16806.755 11326.874 799743.23
 21126.131 12067.040 799629.96
 23200.561 12711.161 799562.48
 -24807.863 20233.680 799359.22
 -22482.135 19074.102 799456.52
 -17783.543 17783.679 799604.58
 -11326.868 16806.760 799743.23
 -3879.2619 16295.482 799824.61
 3879.4267 16295.452 799824.61
 11327.023 16806.675 799743.23
 17783.677 17783.545 799604.58
 22482.247 19073.928 799456.52
 24807.951 20233.484 799359.23
 -27119.919 26179.069 799111.49
 -24357.575 24357.715 799258.04
 -19073.923 22482.251 799456.52
 -12067.038 21126.134 799629.96
 -4119.7864 20431.260 799728.45
 4120.0006 20431.237 799728.45
 12067.237 21126.065 799629.96
 19074.099 22482.140 799456.52
 24357.716 24357.577 799258.04
 27120.032 26178.910 799111.49
 -29659.880 29660.005 798899.60
 -26178.907 27120.034 799111.49
 -20233.481 24807.952 799359.23
 -12711.157 23200.564 799562.48
 -4327.1514 22386.538 799675.01
 4327.3953 22386.518 799675.01
 12711.385 23200.509 799562.48
 20233.679 24807.866 799359.22
 26179.068 27119.922 799111.49
 29660.006 29659.883 798899.60
 -91440.719 -91440.579 789479.08
 -81076.639 -84772.410 791353.41
 -62912.860 -78919.321 793608.03
 -39627.352 -74903.392 795499.31
 -13507.941 -72872.569 796559.55
 13507.666 -72872.590 796559.56
 39627.096 -74903.453 795499.32
 62912.636 -78919.415 793608.04
 81076.460 -84772.528 791353.41
 91440.577 -91440.710 789479.08
 -84772.538 -81076.462 791353.41
 -76424.162 -76424.000 792665.58
 -60028.478 -71753.034 794511.22
 -38050.650 -68406.479 796161.23
 -13003.595 -66692.106 797109.20
 13003.351 -66692.133 797109.20
 38050.420 -68406.554 796161.23
 60028.280 -71753.152 794511.23
 76423.998 -76424.150 792665.58
 84772.408 -81076.629 791353.41
 -78919.427 -62912.637 793608.04
 -71753.165 -60028.281 794511.23
 -56876.112 -56875.950 795946.13
 -36267.945 -54496.455 797317.23
 -12428.249 -53247.395 798129.22
 12428.055 -53247.425 798129.22
 36267.764 -54496.548 797317.24
 56875.951 -56876.097 795946.13
 71753.034 -60028.465 794511.22
 78919.320 -62912.847 793608.04
 -74903.466 -39627.096 795499.32
 -68406.569 -38050.418 796161.23
 -54496.564 -36267.764 797317.24
 -34876.153 -34876.028 798478.13
 -11972.488 -34130.529 799181.94
 11972.358 -34130.567 799181.94
 34876.033 -34876.134 798478.13
 54496.456 -36267.929 797317.24
 68406.480 -38050.636 796161.23
 74903.393 -39627.338 795499.31
 -72872.605 -13507.663 796559.56
 -66692.148 -13003.350 797109.20
 -53247.444 -12428.049 798129.22
 -34130.584 -11972.357 799181.94
 -11725.810 -11725.750 799828.11
 11725.756 -11725.788 799828.11
 34130.532 -11972.471 799181.94
 53247.399 -12428.232 798129.22
 66692.109 -13003.577 797109.20
 72872.572 -13507.926 796559.55
 -72872.585 13507.944 796559.55
 -66692.124 13003.601 797109.19
 -53247.412 12428.251 798129.22
 -34130.550 11972.494 799181.93
 -11725.768 11725.813 799828.11
 11725.792 11725.773 799828.11
 34130.573 11972.379 799181.94
 53247.429 12428.074 798129.22
 66692.138 13003.367 797109.20
 72872.594 13507.684 796559.56
 -74903.411 39627.359 795499.31
 -68406.495 38050.655 796161.23
 -54496.477 36267.952 797317.23
 -34876.046 34876.158 798478.12
 -11972.377 34130.590 799181.93
 11972.476 34130.553 799181.93
 34876.139 34876.051 798478.12
 54496.555 36267.783 797317.24
 68406.559 38050.440 796161.23
 74903.460 39627.114 795499.32
 -78919.338 62912.868 793608.03
 -71753.056 60028.486 794511.22
 -56875.967 56876.120 795946.12
 -36267.784 54496.570 797317.23
 -12428.069 53247.449 798129.22
 12428.235 53247.416 798129.22
 36267.936 54496.477 797317.23
 56876.102 56875.970 795946.12
 71753.161 60028.300 794511.23
 78919.422 62912.655 793608.04
 -84772.430 81076.649 791353.41
 -76424.017 76424.172 792665.58
 -60028.303 71753.171 794511.22
 -38050.437 68406.577 796161.23
 -13003.367 66692.153 797109.20
 13003.582 66692.127 797109.19
 38050.639 68406.498 796161.23
 60028.474 71753.054 794511.22
 76424.157 76424.017 792665.58
 84772.538 81076.480 791353.41
 -91440.599 91440.731 789479.07
 -81076.483 84772.547 791353.41
 -62912.656 78919.436 793608.04
 -39627.116 74903.472 795499.32
 -13507.682 72872.610 796559.56
 13507.928 72872.588 796559.55
 39627.344 74903.411 795499.31
 62912.854 78919.338 793608.03
 81076.639 84772.427 791353.41
 91440.720 91440.596 789479.08
 -158036.97 -158036.82 768146.26
 -141099.82 -150407.51 772960.82
 -110128.33 -144431.69 779109.26
 -69655.276 -140503.85 784478.69
 -23796.702 -138528.49 787555.44
 23796.389 -138528.51 787555.45
 69654.984 -140503.92 784478.70
 110128.08 -144431.79 779109.28
 141099.62 -150407.64 772960.83
 158036.81 -158036.95 768146.27
 -150407.66 -141099.62 772960.82
 -136353.20 -136353.01 776412.04
 -107564.59 -131942.25 781678.39
 -68399.000 -128869.25 786583.94
 -23416.875 -127295.05 789460.33
 23416.590 -127295.08 789460.34
 68398.737 -128869.33 786583.95
 107564.36 -131942.38 781678.40
 136353.01 -136353.18 776412.05
 150407.51 -141099.80 772960.82
 -144431.81 -110128.08 779109.27
 -131942.40 -107564.36 781678.39
 -104892.07 -104891.89 786126.80
 -67028.055 -102872.43 790521.67
 -22998.656 -101795.28 793163.78
 22998.424 -101795.32 793163.78
 67027.836 -102872.54 790521.67
 104891.88 -104892.05 786126.80
 131942.24 -107564.56 781678.39
 144431.69 -110128.30 779109.26
 -140503.94 -69654.985 784478.70
 -128869.36 -68398.738 786583.94
 -102872.57 -67027.833 790521.67
 -65926.606 -65926.454 794548.54
 -22652.342 -65316.027 797007.33
 22652.180 -65316.070 797007.33
 65926.455 -65926.576 794548.54
 102872.43 -67028.025 790521.67
 128869.25 -68398.974 786583.94
 140503.85 -69655.250 784478.69
 -138528.53 -23796.388 787555.44
 -127295.11 -23416.585 789460.33
 -101795.35 -22998.423 793163.78
 -65316.105 -22652.173 797007.33
 -22456.149 -22456.070 799369.41
 22456.073 -22456.116 799369.41
 65316.033 -22652.307 797007.33
 101795.29 -22998.625 793163.78
 127295.05 -23416.846 789460.34
 138528.49 -23796.674 787555.44
 -138528.51 23796.707 787555.44
 -127295.08 23416.878 789460.33
 -101795.32 22998.664 793163.78
 -65316.060 22652.345 797007.33
 -22456.106 22456.156 799369.40
 22456.122 22456.110 799369.41
 65316.075 22652.213 797007.33
 101795.33 22998.457 793163.78
 127295.08 23416.620 789460.34
 138528.51 23796.418 787555.45
 -140503.88 69655.283 784478.68
 -128869.28 68399.008 786583.93
 -102872.46 67028.061 790521.66
 -65926.489 65926.613 794548.54
 -22652.208 65316.110 797007.33
 22652.311 65316.066 797007.33
 65926.582 65926.490 794548.54
 102872.54 67027.868 790521.67
 128869.34 68398.768 786583.94
 140503.92 69655.014 784478.70
 -144431.72 110128.33 779109.25
 -131942.27 107564.60 781678.38
 -104891.92 104892.08 786126.79
 -67027.864 102872.57 790521.66
 -22998.456 101795.36 793163.78
 22998.631 101795.32 793163.78
 67028.030 102872.46 790521.66
 104892.06 104891.92 786126.80
 131942.38 107564.38 781678.39
 144431.80 110128.10 779109.27
 -150407.54 141099.83 772960.81
 -136353.05 136353.21 776412.04
 -107564.38 131942.41 781678.39
 -68398.770 128869.36 786583.94
 -23416.617 127295.11 789460.33
 23416.848 127295.08 789460.33
 68398.981 128869.28 786583.94
 107564.57 131942.27 781678.39
 136353.19 136353.04 776412.04
 150407.65 141099.64 772960.82
 -158036.85 158036.98 768146.25
 -141099.65 150407.67 772960.82
 -110128.11 144431.82 779109.27
 -69655.015 140503.95 784478.69
 -23796.418 138528.54 787555.44
 23796.678 138528.52 787555.44
 69655.256 140503.88 784478.68
 110128.31 144431.71 779109.26
 141099.81 150407.53 772960.81
 158036.97 158036.84 768146.26
 -224830.10 -224829.93 734100.08
 -201392.17 -221722.98 741808.68
 -157662.28 -220749.76 752603.58
 -100065.10 -220494.34 762475.72
 -34267.381 -220409.14 768274.40
 34267.029 -220409.17 768274.41
 100064.77 -220494.42 762475.74
 157662.01 -220749.88 752603.60
 201391.95 -221723.12 741808.70
 224829.93 -224830.07 734100.09
 -221723.15 -201391.95 741808.69
 -201328.28 -201328.07 747618.84
 -159083.13 -201882.70 757585.59
 -101460.84 -202458.03 767278.60
 -34816.856 -202769.41 773092.72
 34816.527 -202769.44 773092.73
 101460.53 -202458.13 767278.61
 159082.87 -201882.85 757585.61
 201328.07 -201328.25 747618.85
 221722.98 -201392.14 741808.69
 -220749.90 -157662.01 752603.59
 -201882.88 -159082.87 757585.60
 -160640.49 -160640.26 767065.41
 -102930.52 -161748.43 776687.04
 -35399.540 -162295.70 782564.36
 35399.260 -162295.74 782564.36
 102930.26 -161748.55 776687.05
 160640.27 -160640.45 767065.41
 201882.70 -159083.10 757585.60
 220749.76 -157662.25 752603.59
 -220494.45 -100064.77 762475.73
 -202458.17 -101460.53 767278.60
 -161748.59 -102930.26 776687.04
 -103942.70 -103942.50 786378.96
 -35800.500 -104433.79 792345.83
 35800.299 -104433.84 792345.83
 103942.51 -103942.65 786378.97
 161748.43 -102930.47 776687.04
 202458.04 -101460.80 767278.60
 220494.34 -100065.06 762475.72
 -220409.20 -34267.025 768274.40
 -202769.48 -34816.525 773092.72
 -162295.79 -35399.253 782564.35
 -104433.89 -35800.295 792345.82
 -35994.499 -35994.389 798378.86
 35994.398 -35994.446 798378.86
 104433.79 -35800.451 792345.83
 162295.70 -35399.492 782564.36
 202769.41 -34816.815 773092.72
 220409.14 -34267.342 768274.40
 -220409.17 34267.386 768274.39
 -202769.45 34816.864 773092.71
 -162295.74 35399.545 782564.35
 -104433.84 35800.509 792345.82
 -35994.443 35994.505 798378.85
 35994.452 35994.450 798378.86
 104433.84 35800.351 792345.83
 162295.75 35399.306 782564.36
 202769.45 34816.571 773092.72
 220409.17 34267.069 768274.41
 -220494.38 100065.10 762475.71
 -202458.07 101460.85 767278.58
 -161748.48 102930.52 776687.03
 -103942.55 103942.71 786378.95
 -35800.346 104433.89 792345.82
 35800.457 104433.84 792345.82
 103942.66 103942.56 786378.96
 161748.56 102930.30 776687.04
 202458.14 101460.57 767278.60
 220494.43 100064.81 762475.73
 -220749.79 157662.29 752603.57
 -201882.74 159083.14 757585.58
 -160640.30 160640.50 767065.40
 -102930.30 161748.60 776687.03
 -35399.302 162295.80 782564.35
 35399.497 162295.75 782564.35
 102930.48 161748.48 776687.03
 160640.46 160640.31 767065.40
 201882.86 159082.91 757585.60
 220749.88 157662.04 752603.59
 -221723.02 201392.18 741808.66
 -201328.11 201328.29 747618.83
 -159082.91 201882.89 757585.59
 -101460.57 202458.18 767278.59
 -34816.569 202769.48 773092.71
 34816.820 202769.45 773092.71
 101460.80 202458.07 767278.59
 159083.11 201882.74 757585.59
 201328.26 201328.10 747618.84
 221723.13 201391.98 741808.68
 -224829.96 224830.11 734100.07
 -201391.99 221723.16 741808.67
 -157662.05 220749.91 752603.58
 -100064.81 220494.46 762475.72
 -34267.067 220409.21 768274.40
 34267.346 220409.18 768274.39
 100065.07 220494.38 762475.71
 157662.26 220749.79 752603.58
 201392.15 221723.01 741808.67
 224830.08 224829.95 734100.08
 -277851.89 -277851.71 696847.72
 -246004.47 -284219.74 706187.61
 -191784.29 -290868.58 720148.77
 -121815.87 -295848.16 733235.82
 -41780.643 -298479.18 741056.38
 41780.264 -298479.21 741056.39
 121815.53 -295848.24 733235.84
 191784.00 -290868.71 720148.80