# OOMMF OVF 2.0
#
# Segment count: 1
#
# Begin: Segment
# Begin: Header
#
# Title: Oxs_MinDriver::Magnetization
# Desc: Oxs vector field output
# Desc:  MIF source file: /home/ryan/Git/joommf/tools/omfvis/cube_example.mif
# Desc:  Iteration: 5575, State id: 11840
# Desc:  Stage: 39, Stage iteration: 33
# Desc:  Stage simulation time: 0 s
# Desc:  Total simulation time: -2 s
# meshunit: m
# meshtype: rectangular
# xbase: 2.5000000000000001e-09
# ybase: 2.5000000000000001e-09
# zbase: 2.5000000000000001e-09
# xnodes: 10
# ynodes: 10
# znodes: 10
# xstepsize: 5.0000000000000001e-09
# ystepsize: 5.0000000000000001e-09
# zstepsize: 5.0000000000000001e-09
# xmin: 0
# ymin: 0
# zmin: 0
# xmax: 4.9999999999999998e-08
# ymax: 4.9999999999999998e-08
# zmax: 4.9999999999999998e-08
# valuedim: 3
# valuelabels: Magnetization_x Magnetization_y Magnetization_z
# valueunits: A/m A/m A/m
#
# End: Header
#
# Begin: Data Text
 254461.37 254461.38 714492.00
 222967.90 261337.50 722487.39
 171921.21 268178.77 733841.43
 108255.36 273099.64 744108.43
 36953.432 275624.13 750110.51
 -36953.444 275624.13 750110.51
 -108255.37 273099.64 744108.43
 -171921.21 268178.77 733841.43
 -222967.91 261337.50 722487.39
 -254461.38 254461.37 714492.00
 261337.50 222967.91 722487.39
 231490.53 231490.54 729948.13
 179938.84 239283.72 741866.10
 113878.14 244820.91 753056.76
 38968.455 247668.96 759698.33
 -38968.467 247668.96 759698.33
 -113878.15 244820.91 753056.76
 -179938.85 239283.72 741866.10
 -231490.54 231490.53 729948.13
 -261337.50 222967.90 722487.39
 268178.77 171921.21 733841.43
 239283.72 179938.85 741866.10
 187342.45 187342.45 754854.70
 119185.93 192614.53 767264.20
 40895.341 195333.77 774707.87
 -40895.351 195333.77 774707.87
 -119185.94 192614.53 767264.20
 -187342.45 187342.45 754854.70
 -239283.72 179938.84 741866.10
 -268178.77 171921.21 733841.43
 273099.64 108255.37 744108.43
 244820.91 113878.15 753056.76
 192614.53 119185.94 767264.20
 123000.62 123000.62 780859.59
 42289.294 124976.19 789045.35
 -42289.301 124976.19 789045.35
 -123000.62 123000.62 780859.59
 -192614.53 119185.93 767264.20
 -244820.91 113878.14 753056.76
 -273099.64 108255.36 744108.43
 275624.13 36953.443 750110.51
 247668.96 38968.467 759698.33
 195333.77 40895.350 774707.87
 124976.19 42289.301 789045.35
 43013.302 43013.304 797683.97
 -43013.304 43013.302 797683.97
 -124976.19 42289.294 789045.35
 -195333.77 40895.341 774707.87
 -247668.96 38968.456 759698.33
 -275624.13 36953.432 750110.51
 275624.13 -36953.432 750110.51
 247668.96 -38968.456 759698.33
 195333.77 -40895.341 774707.87
 124976.19 -42289.294 789045.35
 43013.304 -43013.302 797683.97
 -43013.302 -43013.304 797683.97
 -124976.19 -42289.301 789045.35
 -195333.77 -40895.350 774707.87
 -247668.96 -38968.467 759698.33
 -275624.13 -36953.443 750110.51
 273099.64 -108255.36 744108.43
 244820.91 -113878.14 753056.76
 192614.53 -119185.93 767264.20
 123000.62 -123000.62 780859.59
 42289.301 -124976.19 789045.35
 -42289.294 -124976.19 789045.35
 -123000.62 -123000.62 780859.59
 -192614.53 -119185.94 767264.20
 -244820.91 -113878.15 753056.76
 -273099.64 -108255.37 744108.43
 268178.77 -171921.21 733841.43
 239283.72 -179938.84 741866.10
 187342.45 -187342.45 754854.70
 119185.94 -192614.53 767264.20
 40895.351 -195333.77 774707.87
 -40895.341 -195333.77 774707.87
 -119185.93 -192614.53 767264.20
 -187342.45 -187342.45 754854.70
 -239283.72 -179938.85 741866.10
 -268178.77 -171921.21 733841.43
 261337.50 -222967.90 722487.39
 231490.54 -231490.53 729948.13
 179938.85 -239283.72 741866.10
 113878.15 -244820.91 753056.76
 38968.467 -247668.96 759698.33
 -38968.455 -247668.96 759698.33
 -113878.14 -244820.91 753056.76
 -179938.84 -239283.72 741866.10
 -231490.53 -231490.54 729948.13
 -261337.50 -222967.91 722487.39
 254461.38 -254461.37 714492.00
 222967.91 -261337.50 722487.39
 171921.21 -268178.77 733841.43
 108255.37 -273099.64 744108.43
 36953.444 -275624.13 750110.51
 -36953.432 -275624.13 750110.51
 -108255.36 -273099.64 744108.43
 -171921.21 -268178.77 733841.43
 -222967.90 -261337.50 722487.39
 -254461.37 -254461.38 714492.00
 202718.31 202718.31 746867.17
 180499.91 200859.27 753044.05
 140278.40 200991.33 761527.71
 88504.088 201510.59 769129.71
 30209.662 201823.14 773533.97
 -30209.673 201823.14 773533.97
 -88504.098 201510.59 769129.71
 -140278.41 200991.33 761527.71
 -180499.92 200859.26 753044.05
 -202718.31 202718.31 746867.17
 200859.26 180499.92 753044.05
 181269.19 181269.19 757814.60
 142160.17 182629.80 765791.65
 90119.919 183774.35 773372.74
 30823.488 184374.68 777853.39
 -30823.497 184374.68 777853.39
 -90119.930 183774.34 773372.74
 -142160.17 182629.79 765791.65
 -181269.19 181269.19 757814.60
 -200859.27 180499.91 753044.05
 200991.33 140278.41 761527.71
 182629.79 142160.17 765791.65
 144189.12 144189.13 773575.46
 91815.212 145641.01 781254.54
 31470.765 146364.07 785867.13
 -31470.774 146364.07 785867.13
 -91815.218 145641.01 781254.54
 -144189.13 144189.12 773575.46
 -182629.80 142160.17 765791.65
 -200991.33 140278.40 761527.71
 201510.59 88504.098 769129.71
 183774.35 90119.931 773372.74
 145641.01 91815.218 781254.54
 92996.676 92996.681 789115.48
 31920.990 93575.978 793866.86
 -31920.995 93575.976 793866.86
 -92996.681 92996.675 789115.48
 -145641.01 91815.212 781254.54
 -183774.35 90119.920 773372.74
 -201510.59 88504.088 769129.71
 201823.14 30209.674 773533.97
 184374.68 30823.496 777853.39
 146364.07 31470.775 785867.13
 93575.976 31920.995 793866.86
 32141.007 32141.009 798707.65
 -32141.009 32141.007 798707.65
 -93575.978 31920.990 793866.86
 -146364.07 31470.766 785867.13
 -184374.68 30823.487 777853.39
 -201823.14 30209.663 773533.97
 201823.14 -30209.663 773533.97
 184374.68 -30823.487 777853.39
 146364.07 -31470.766 785867.13
 93575.978 -31920.990 793866.86
 32141.009 -32141.007 798707.65
 -32141.007 -32141.009 798707.65
 -93575.976 -31920.995 793866.86
 -146364.07 -31470.775 785867.13
 -184374.68 -30823.496 777853.39
 -201823.14 -30209.674 773533.97
 201510.59 -88504.088 769129.71
 183774.35 -90119.920 773372.74
 145641.01 -91815.212 781254.54
 92996.681 -92996.675 789115.48
 31920.995 -93575.977 793866.86
 -31920.990 -93575.978 793866.86
 -92996.675 -92996.682 789115.48
 -145641.01 -91815.218 781254.54
 -183774.35 -90119.931 773372.74
 -201510.59 -88504.098 769129.71
 200991.33 -140278.40 761527.71
 182629.80 -142160.17 765791.65
 144189.13 -144189.12 773575.46
 91815.218 -145641.01 781254.54
 31470.774 -146364.07 785867.13
 -31470.765 -146364.07 785867.13
 -91815.212 -145641.01 781254.54
 -144189.12 -144189.13 773575.46
 -182629.79 -142160.17 765791.65
 -200991.33 -140278.41 761527.71
 200859.27 -180499.91 753044.05
 181269.19 -181269.19 757814.60
 142160.17 -182629.79 765791.65
 90119.930 -183774.34 773372.74
 30823.497 -184374.68 777853.39
 -30823.488 -184374.68 777853.39
 -90119.919 -183774.35 773372.74
 -142160.17 -182629.80 765791.65
 -181269.19 -181269.19 757814.60
 -200859.26 -180499.92 753044.05
 202718.31 -202718.31 746867.17
 180499.92 -200859.26 753044.05
 140278.41 -200991.33 761527.71
 88504.098 -201510.59 769129.71
 30209.673 -201823.14 773533.97
 -30209.662 -201823.14 773533.97
 -88504.088 -201510.59 769129.71
 -140278.40 -200991.33 761527.71
 -180499.91 -200859.27 753044.05
 -202718.31 -202718.31 746867.17
 140412.67 140412.68 774963.59
 125040.89 134412.76 778651.39
 97262.140 130095.58 783335.95
 61342.592 127435.15 787399.12
 20924.104 126141.62 789715.44
 -20924.113 126141.62 789715.44
 -61342.603 127435.15 787399.12
 -97262.147 130095.57 783335.95
 -125040.89 134412.75 778651.39
 -140412.68 140412.67 774963.59
 134412.75 125040.89 778651.39
 121547.70 121547.70 781314.48
 95559.719 118514.58 785380.57
 60595.899 116512.69 789146.96
 20714.277 115516.16 791345.02
 -20714.287 115516.16 791345.02
 -60595.905 116512.69 789146.96
 -95559.728 118514.57 785380.57
 -121547.70 121547.70 781314.48
 -134412.76 125040.89 778651.39
 130095.57 97262.147 783335.95
 118514.58 95559.728 785380.57
 93876.544 93876.549 788907.08
 59816.534 92646.070 792362.72
 20493.197 91999.007 794428.23
 -20493.204 91999.005 794428.23
 -59816.543 92646.066 792362.72
 -93876.548 93876.545 788907.08
 -118514.58 95559.718 785380.57
 -130095.58 97262.140 783335.95
 127435.15 61342.603 787399.12
 116512.69 60595.905 789146.96
 92646.067 59816.542 792362.72
 59194.477 59194.481 795607.96
 20307.631 58847.919 797574.15
 -20307.636 58847.918 797574.15
 -59194.480 59194.477 795607.96
 -92646.072 59816.534 792362.72
 -116512.69 60595.898 789146.96
 -127435.15 61342.593 787399.12
 126141.62 20924.113 789715.44
 115516.16 20714.288 791345.02
 91999.005 20493.203 794428.23
 58847.918 20307.636 797574.15
 20200.420 20200.421 799489.77
 -20200.421 20200.419 799489.77
 -58847.920 20307.631 797574.15
 -91999.006 20493.196 794428.23
 -115516.16 20714.278 791345.02
 -126141.62 20924.103 789715.44
 126141.62 -20924.103 789715.44
 115516.16 -20714.278 791345.02
 91999.006 -20493.197 794428.23
 58847.920 -20307.631 797574.15
 20200.421 -20200.420 799489.77
 -20200.420 -20200.421 799489.77
 -58847.918 -20307.636 797574.15
 -91999.005 -20493.203 794428.23
 -115516.16 -20714.288 791345.02
 -126141.62 -20924.113 789715.44
 127435.15 -61342.593 787399.12
 116512.69 -60595.898 789146.96
 92646.071 -59816.534 792362.72
 59194.480 -59194.477 795607.96
 20307.636 -58847.918 797574.15
 -20307.630 -58847.920 797574.15
 -59194.477 -59194.480 795607.96
 -92646.066 -59816.543 792362.72
 -116512.69 -60595.905 789146.96
 -127435.15 -61342.603 787399.12
 130095.58 -97262.140 783335.95
 118514.58 -95559.718 785380.57
 93876.548 -93876.545 788907.08
 59816.542 -92646.065 792362.72
 20493.204 -91999.005 794428.23
 -20493.198 -91999.006 794428.23
 -59816.534 -92646.071 792362.72
 -93876.544 -93876.548 788907.08
 -118514.58 -95559.728 785380.57
 -130095.57 -97262.147 783335.95
 134412.76 -125040.89 778651.39
 121547.70 -121547.70 781314.48
 95559.728 -118514.57 785380.57
 60595.905 -116512.69 789146.96
 20714.287 -115516.16 791345.02
 -20714.277 -115516.16 791345.02
 -60595.899 -116512.69 789146.96
 -95559.718 -118514.58 785380.57
 -121547.70 -121547.70 781314.48
 -134412.75 -125040.89 778651.39
 140412.68 -140412.67 774963.59
 125040.89 -134412.75 778651.39
 97262.147 -130095.57 783335.95
 61342.602 -127435.15 787399.12
 20924.113 -126141.62 789715.44
 -20924.104 -126141.62 789715.44
 -61342.592 -127435.15 787399.12
 -97262.140 -130095.58 783335.95
 -125040.89 -134412.76 778651.39
 -140412.67 -140412.68 774963.59
 80440.448 80440.453 791870.36
 71300.357 75094.784 793269.84
 55293.762 70632.417 794955.13
 34809.308 67685.810 796371.11
 11862.011 66228.409 797165.66
 -11862.020 66228.409 797165.66
 -34809.316 67685.808 796371.11
 -55293.770 70632.414 794955.13
 -71300.363 75094.780 793269.84
 -80440.453 80440.448 791870.36
 75094.780 71300.363 793269.84
 67681.328 67681.334 794253.41
 53130.841 64180.023 795649.44
 33661.964 61748.770 796902.73
 11500.922 60526.785 797624.12
 -11500.929 60526.784 797624.12
 -33661.973 61748.768 796902.73
 -53130.846 64180.020 795649.44
 -67681.335 67681.327 794253.41
 -75094.783 71300.358 793269.84
 70632.414 55293.770 794955.13
 64180.020 53130.846 795649.44
 50829.311 50829.317 796763.93
 32391.740 49130.001 797832.70
 11096.742 48249.963 798466.53
 -11096.750 48249.963 798466.53
 -32391.744 49129.998 797832.70
 -50829.318 50829.311 796763.93
 -64180.022 53130.841 795649.44
 -70632.418 55293.762 794955.13
 67685.808 34809.316 796371.11
 61748.768 33661.974 796902.73
 49129.997 32391.744 797832.70
 31414.712 31414.716 798765.44
 10780.147 30895.771 799330.49
 -10780.151 30895.769 799330.49
 -31414.717 31414.712 798765.44
 -49129.999 32391.739 797832.70
 -61748.772 33661.965 796902.73
 -67685.810 34809.308 796371.11
 66228.409 11862.021 797165.66
 60526.783 11500.928 797624.12
 48249.963 11096.750 798466.53
 30895.769 10780.151 799330.49
 10609.762 10609.763 799859.28
 -10609.764 10609.762 799859.28
 -30895.770 10780.147 799330.49
 -48249.964 11096.744 798466.53
 -60526.784 11500.920 797624.12
 -66228.409 11862.012 797165.66
 66228.409 -11862.012 797165.66
 60526.785 -11500.920 797624.12
 48249.964 -11096.743 798466.53
 30895.770 -10780.147 799330.49
 10609.763 -10609.762 799859.28
 -10609.762 -10609.764 799859.28
 -30895.769 -10780.150 799330.49
 -48249.963 -11096.751 798466.53
 -60526.783 -11500.927 797624.12
 -66228.409 -11862.021 797165.66
 67685.810 -34809.308 796371.11
 61748.772 -33661.964 796902.73
 49130.000 -32391.740 797832.70
 31414.716 -31414.711 798765.44
 10780.151 -30895.770 799330.49
 -10780.148 -30895.770 799330.49
 -31414.711 -31414.716 798765.44
 -49129.997 -32391.744 797832.70
 -61748.768 -33661.974 796902.73
 -67685.808 -34809.315 796371.11
 70632.418 -55293.762 794955.13
 64180.022 -53130.841 795649.44
 50829.318 -50829.310 796763.93
 32391.744 -49129.998 797832.70
 11096.749 -48249.962 798466.53
 -11096.742 -48249.964 798466.53
 -32391.740 -49130.000 797832.70
 -50829.311 -50829.318 796763.93
 -64180.020 -53130.846 795649.44
 -70632.414 -55293.770 794955.13
 75094.784 -71300.358 793269.84
 67681.334 -67681.327 794253.41
 53130.846 -64180.021 795649.44
 33661.973 -61748.767 796902.73
 11500.929 -60526.784 797624.12
 -11500.922 -60526.785 797624.12
 -33661.964 -61748.771 796902.73
 -53130.841 -64180.023 795649.44
 -67681.327 -67681.334 794253.41
 -75094.780 -71300.363 793269.84
 80440.453 -80440.448 791870.36
 71300.363 -75094.780 793269.84
 55293.770 -70632.414 794955.13
 34809.316 -67685.808 796371.11
 11862.020 -66228.409 797165.66
 -11862.011 -66228.409 797165.66
 -34809.308 -67685.810 796371.11
 -55293.762 -70632.418 794955.13
 -71300.358 -75094.784 793269.84
 -80440.448 -80440.453 791870.36
 25969.341 25969.345 799156.55
 22939.457 23927.675 799312.98
 17743.953 22143.505 799496.60
 11154.033 20941.120 799648.08
 3798.4338 20343.337 799732.28
 -3798.4423 20343.336 799732.28
 -11154.042 20941.118 799648.08
 -17743.959 22143.502 799496.60
 -22939.463 23927.671 799312.98
 -25969.345 25969.341 799156.55
 23927.671 22939.463 799312.98
 21506.878 21506.883 799421.61
 16854.710 20074.991 799570.46
 10669.802 19065.653 799701.60
 3644.1592 18556.670 799776.45
 -3644.1671 18556.670 799776.45
 -10669.809 19065.650 799701.60
 -16854.717 20074.987 799570.46
 -21506.883 21506.878 799421.61
 -23927.675 22939.457 799312.98
 22143.502 17743.959 799496.60
 20074.987 16854.717 799570.46
 15886.108 15886.112 799684.48
 10122.707 15166.241 799792.17
 3467.9261 14793.947 799855.68
 -3467.9316 14793.946 799855.68
 -10122.713 15166.238 799792.17
 -15886.112 15886.108 799684.48
 -20074.992 16854.711 799570.46
 -22143.504 17743.952 799496.60
 20941.118 11154.042 799648.08
 19065.650 10669.808 799701.60
 15166.238 10122.713 799792.17
 9701.9059 9701.9096 799882.33
 3330.3270 9479.7144 799936.90
 -3330.3310 9479.7135 799936.90
 -9701.9088 9701.9060 799882.33
 -15166.242 10122.708 799792.17
 -19065.652 10669.801 799701.60
 -20941.120 11154.034 799648.08
 20343.336 3798.4418 799732.28
 18556.670 3644.1681 799776.45
 14793.946 3467.9314 799855.68
 9479.7138 3330.3303 799936.90
 3256.8963 3256.8982 799986.74
 -3256.8974 3256.8967 799986.74
 -9479.7152 3330.3271 799936.90
 -14793.947 3467.9249 799855.68
 -18556.671 3644.1610 799776.45
 -20343.336 3798.4329 799732.28
 20343.336 -3798.4333 799732.28
 18556.671 -3644.1601 799776.45
 14793.947 -3467.9260 799855.68
 9479.7145 -3330.3263 799936.90
 3256.8982 -3256.8971 799986.74
 -3256.8970 -3256.8978 799986.74
 -9479.7133 -3330.3310 799936.90
 -14793.946 -3467.9306 799855.68
 -18556.670 -3644.1689 799776.45
 -20343.336 -3798.4415 799732.28
 20941.120 -11154.034 799648.08
 19065.652 -10669.802 799701.60
 15166.241 -10122.707 799792.17
 9701.9094 -9701.9068 799882.33
 3330.3305 -9479.7129 799936.90
 -3330.3266 -9479.7148 799936.90
 -9701.9062 -9701.9092 799882.33
 -15166.238 -10122.714 799792.17
 -19065.650 -10669.807 799701.60
 -20941.118 -11154.042 799648.08
 22143.505 -17743.953 799496.60
 20074.991 -16854.710 799570.46
 15886.112 -15886.109 799684.48
 10122.713 -15166.237 799792.17
 3467.9319 -14793.946 799855.68
 -3467.9262 -14793.947 799855.68
 -10122.707 -15166.241 799792.17
 -15886.108 -15886.112 799684.48
 -20074.987 -16854.717 799570.46
 -22143.502 -17743.959 799496.60
 23927.675 -22939.457 799312.98
 21506.883 -21506.878 799421.61
 16854.717 -20074.987 799570.46
 10669.809 -19065.651 799701.60
 3644.1671 -18556.670 799776.45
 -3644.1592 -18556.671 799776.45
 -10669.802 -19065.653 799701.60
 -16854.710 -20074.991 799570.46
 -21506.878 -21506.883 799421.61
 -23927.671 -22939.463 799312.98
 25969.345 -25969.341 799156.55
 22939.463 -23927.671 799312.98
 17743.959 -22143.502 799496.60
 11154.042 -20941.118 799648.08
 3798.4423 -20343.336 799732.28
 -3798.4338 -20343.337 799732.28
 -11154.033 -20941.120 799648.08
 -17743.953 -22143.505 799496.60
 -22939.457 -23927.675 799312.98
 -25969.341 -25969.345 799156.55
 -25969.345 -25969.341 799156.55
 -22939.463 -23927.671 799312.98
 -17743.959 -22143.501 799496.60
 -11154.042 -20941.118 799648.08
 -3798.4421 -20343.336 799732.28
 3798.4335 -20343.336 799732.28
 11154.034 -20941.120 799648.08
 17743.953 -22143.504 799496.60
 22939.457 -23927.675 799312.98
 25969.341 -25969.345 799156.55
 -23927.675 -22939.457 799312.98
 -21506.883 -21506.878 799421.61
 -16854.717 -20074.987 799570.46
 -10669.808 -19065.650 799701.60
 -3644.1677 -18556.670 799776.45
 3644.1599 -18556.671 799776.45
 10669.802 -19065.652 799701.60
 16854.710 -20074.992 799570.46
 21506.879 -21506.882 799421.61
 23927.671 -22939.463 799312.98
 -22143.505 -17743.952 799496.60
 -20074.991 -16854.711 799570.46
 -15886.112 -15886.108 799684.48
 -10122.713 -15166.238 799792.17
 -3467.9310 -14793.946 799855.68
 3467.9253 -14793.947 799855.68
 10122.708 -15166.242 799792.17
 15886.108 -15886.111 799684.48
 20074.987 -16854.718 799570.46
 22143.502 -17743.959 799496.60
 -20941.120 -11154.034 799648.08
 -19065.652 -10669.801 799701.60
 -15166.241 -10122.707 799792.17
 -9701.9088 -9701.9061 799882.33
 -3330.3315 -9479.7134 799936.90
 3330.3277 -9479.7147 799936.90
 9701.9053 -9701.9089 799882.33
 15166.238 -10122.714 799792.17
 19065.650 -10669.807 799701.60
 20941.118 -11154.042 799648.08
 -20343.336 -3798.4332 799732.28
 -18556.671 -3644.1602 799776.45
 -14793.947 -3467.9257 799855.68
 -9479.7151 -3330.3266 799936.90
 -3256.8974 -3256.8969 799986.74
 3256.8960 -3256.8980 799986.74
 9479.7141 -3330.3309 799936.90
 14793.945 -3467.9306 799855.68
 18556.670 -3644.1689 799776.45
 20343.336 -3798.4415 799732.28
 -20343.336 3798.4418 799732.28
 -18556.670 3644.1680 799776.45
 -14793.946 3467.9315 799855.68
 -9479.7135 3330.3302 799936.90
 -3256.8966 3256.8983 799986.74
 3256.8980 3256.8966 799986.74
 9479.7146 3330.3271 799936.90
 14793.947 3467.9249 799855.68
 18556.671 3644.1610 799776.45
 20343.336 3798.4329 799732.28
 -20941.118 11154.042 799648.08
 -19065.650 10669.808 799701.60
 -15166.238 10122.713 799792.17
 -9701.9058 9701.9097 799882.33
 -3330.3273 9479.7142 799936.90
 3330.3311 9479.7137 799936.90
 9701.9090 9701.9057 799882.33
 15166.241 10122.708 799792.17
 19065.652 10669.801 799701.60
 20941.120 11154.034 799648.08
 -22143.502 17743.959 799496.60
 -20074.987 16854.718 799570.46
 -15886.108 15886.112 799684.48
 -10122.707 15166.241 799792.17
 -3467.9254 14793.947 799855.68
 3467.9311 14793.946 799855.68
 10122.713 15166.238 799792.17
 15886.112 15886.108 799684.48
 20074.991 16854.711 799570.46
 22143.505 17743.952 799496.60
 -23927.671 22939.463 799312.98
 -21506.879 21506.882 799421.61
 -16854.710 20074.992 799570.46
 -10669.802 19065.652 799701.60
 -3644.1599 18556.671 799776.45
 3644.1678 18556.670 799776.45
 10669.808 19065.650 799701.60
 16854.717 20074.987 799570.46
 21506.883 21506.878 799421.61
 23927.675 22939.457 799312.98
 -25969.341 25969.345 799156.55
 -22939.457 23927.675 799312.98
 -17743.953 22143.504 799496.60
 -11154.033 20941.120 799648.08
 -3798.4335 20343.336 799732.28
 3798.4421 20343.336 799732.28
 11154.042 20941.118 799648.08
 17743.959 22143.502 799496.60
 22939.463 23927.671 799312.98
 25969.345 25969.341 799156.55
 -80440.453 -80440.448 791870.36
 -71300.363 -75094.780 793269.84
 -55293.770 -70632.414 794955.13
 -34809.316 -67685.808 796371.11
 -11862.021 -66228.409 797165.66
 11862.012 -66228.410 797165.66
 34809.308 -67685.809 796371.11
 55293.762 -70632.418 794955.13
 71300.358 -75094.783 793269.84
 80440.448 -80440.453 791870.36
 -75094.784 -71300.357 793269.84
 -67681.334 -67681.328 794253.41
 -53130.846 -64180.019 795649.44
 -33661.974 -61748.768 796902.73
 -11500.928 -60526.784 797624.12
 11500.920 -60526.784 797624.12
 33661.965 -61748.772 796902.73
 53130.841 -64180.021 795649.44
 67681.327 -67681.336 794253.41
 75094.780 -71300.362 793269.84
 -70632.418 -55293.763 794955.13
 -64180.023 -53130.840 795649.44
 -50829.318 -50829.312 796763.93
 -32391.743 -49129.997 797832.70
 -11096.751 -48249.963 798466.53
 11096.744 -48249.964 798466.53
 32391.739 -49129.999 797832.70
 50829.311 -50829.319 796763.93
 64180.020 -53130.844 795649.44
 70632.414 -55293.771 794955.13
 -67685.810 -34809.308 796371.11
 -61748.771 -33661.965 796902.73
 -49130.000 -32391.739 797832.70
 -31414.717 -31414.712 798765.44
 -10780.149 -30895.769 799330.49
 10780.146 -30895.770 799330.49
 31414.713 -31414.717 798765.44
 49129.997 -32391.743 797832.70
 61748.768 -33661.975 796902.73
 67685.808 -34809.315 796371.11
 -66228.409 -11862.012 797165.66
 -60526.785 -11500.920 797624.12
 -48249.964 -11096.743 798466.53
 -30895.770 -10780.147 799330.49
 -10609.764 -10609.762 799859.28
 10609.763 -10609.764 799859.28
 30895.768 -10780.150 799330.49
 48249.963 -11096.751 798466.53
 60526.784 -11500.927 797624.12
 66228.409 -11862.021 797165.66
 -66228.409 11862.021 797165.66
 -60526.784 11500.928 797624.12
 -48249.963 11096.750 798466.53
 -30895.769 10780.151 799330.49
 -10609.763 10609.763 799859.28
 10609.764 10609.763 799859.28
 30895.770 10780.147 799330.49
 48249.964 11096.744 798466.53
 60526.785 11500.920 797624.12
 66228.409 11862.012 797165.66
 -67685.808 34809.315 796371.11
 -61748.768 33661.974 796902.73
 -49129.997 32391.743 797832.70
 -31414.712 31414.716 798765.44
 -10780.146 30895.771 799330.49
 10780.150 30895.769 799330.49
 31414.717 31414.712 798765.44
 49130.000 32391.739 797832.70
 61748.771 33661.965 796902.73
 67685.810 34809.307 796371.11
 -70632.414 55293.771 794955.13
 -64180.020 53130.845 795649.44
 -50829.311 50829.319 796763.93
 -32391.739 49130.000 797832.70
 -11096.744 48249.964 798466.53
 11096.751 48249.963 798466.53
 32391.743 49129.997 797832.70
 50829.318 50829.312 796763.93
 64180.023 53130.840 795649.44
 70632.418 55293.763 794955.13
 -75094.780 71300.362 793269.84
 -67681.327 67681.335 794253.41
 -53130.841 64180.022 795649.44
 -33661.965 61748.772 796902.73
 -11500.920 60526.785 797624.12
 11500.928 60526.783 797624.12
 33661.974 61748.769 796902.73
 53130.846 64180.019 795649.44
 67681.334 67681.328 794253.41
 75094.784 71300.357 793269.84
 -80440.448 80440.453 791870.36
 -71300.358 75094.783 793269.84
 -55293.762 70632.418 794955.13
 -34809.308 67685.809 796371.11
 -11862.012 66228.409 797165.66
 11862.021 66228.409 797165.66
 34809.316 67685.808 796371.11
 55293.770 70632.414 794955.13
 71300.363 75094.780 793269.84
 80440.453 80440.448 791870.36
 -140412.68 -140412.67 774963.59
 -125040.89 -134412.75 778651.39
 -97262.147 -130095.57 783335.95
 -61342.603 -127435.15 787399.12
 -20924.113 -126141.62 789715.44
 20924.103 -126141.62 789715.44
 61342.593 -127435.15 787399.12
 97262.140 -130095.57 783335.95
 125040.89 -134412.76 778651.39
 140412.67 -140412.68 774963.59
 -134412.76 -125040.89 778651.39
 -121547.70 -121547.70 781314.48
 -95559.728 -118514.58 785380.57
 -60595.904 -116512.69 789146.96
 -20714.289 -115516.16 791345.02
 20714.279 -115516.16 791345.02
 60595.898 -116512.69 789146.96
 95559.719 -118514.58 785380.57
 121547.70 -121547.70 781314.48
 134412.75 -125040.89 778651.39
 -130095.58 -97262.140 783335.95
 -118514.58 -95559.720 785380.57
 -93876.548 -93876.543 788907.08
 -59816.544 -92646.067 792362.72
 -20493.202 -91999.005 794428.23
 20493.195 -91999.006 794428.23
 59816.535 -92646.072 792362.72
 93876.544 -93876.547 788907.08
 118514.58 -95559.729 785380.57
 130095.57 -97262.146 783335.95
 -127435.15 -61342.593 787399.12
 -116512.69 -60595.898 789146.96
 -92646.071 -59816.535 792362.72
 -59194.479 -59194.477 795607.96
 -20307.637 -58847.918 797574.15
 20307.632 -58847.920 797574.15
 59194.476 -59194.480 795607.96
 92646.066 -59816.544 792362.72
 116512.69 -60595.904 789146.96
 127435.15 -61342.603 787399.12
 -126141.62 -20924.103 789715.44
 -115516.16 -20714.278 791345.02
 -91999.006 -20493.196 794428.23
 -58847.920 -20307.631 797574.15
 -20200.420 -20200.420 799489.77
 20200.419 -20200.421 799489.77
 58847.919 -20307.636 797574.15
 91999.005 -20493.203 794428.23
 115516.16 -20714.288 791345.02
 126141.62 -20924.113 789715.44
 -126141.62 20924.113 789715.44
 -115516.16 20714.288 791345.02
 -91999.005 20493.203 794428.23
 -58847.918 20307.636 797574.15
 -20200.419 20200.421 799489.77
 20200.421 20200.419 799489.77
 58847.920 20307.632 797574.15
 91999.006 20493.196 794428.23
 115516.16 20714.279 791345.02
 126141.62 20924.103 789715.44
 -127435.15 61342.603 787399.12
 -116512.69 60595.904 789146.96
 -92646.066 59816.544 792362.72
 -59194.476 59194.480 795607.96
 -20307.632 58847.919 797574.15
 20307.637 58847.919 797574.15
 59194.479 59194.476 795607.96
 92646.071 59816.535 792362.72
 116512.69 60595.897 789146.96
 127435.15 61342.593 787399.12
 -130095.57 97262.146 783335.95
 -118514.57 95559.730 785380.57
 -93876.544 93876.547 788907.08
 -59816.535 92646.072 792362.72
 -20493.196 91999.006 794428.23
 20493.202 91999.004 794428.23
 59816.543 92646.067 792362.72
 93876.548 93876.543 788907.08
 118514.58 95559.720 785380.57
 130095.58 97262.139 783335.95
 -134412.75 125040.90 778651.39
 -121547.70 121547.70 781314.48
 -95559.718 118514.58 785380.57
 -60595.898 116512.69 789146.96
 -20714.279 115516.16 791345.02
 20714.288 115516.16 791345.02
 60595.905 116512.69 789146.96
 95559.728 118514.58 785380.57
 121547.70 121547.70 781314.48
 134412.76 125040.89 778651.39
 -140412.67 140412.68 774963.59
 -125040.89 134412.76 778651.39
 -97262.140 130095.57 783335.95
 -61342.593 127435.15 787399.12
 -20924.103 126141.62 789715.44
 20924.113 126141.62 789715.44
 61342.603 127435.15 787399.12
 97262.147 130095.57 783335.95
 125040.89 134412.75 778651.39
 140412.68 140412.67 774963.59
 -202718.31 -202718.31 746867.17
 -180499.92 -200859.26 753044.05
 -140278.41 -200991.33 761527.71
 -88504.098 -201510.59 769129.71
 -30209.674 -201823.14 773533.97
 30209.663 -201823.14 773533.97
 88504.088 -201510.59 769129.71
 140278.40 -200991.33 761527.71
 180499.91 -200859.27 753044.05
 202718.31 -202718.31 746867.17
 -200859.27 -180499.91 753044.05
 -181269.19 -181269.19 757814.60
 -142160.17 -182629.79 765791.65
 -90119.931 -183774.35 773372.74
 -30823.496 -184374.68 777853.39
 30823.486 -184374.68 777853.39
 90119.920 -183774.35 773372.74
 142160.17 -182629.79 765791.65
 181269.19 -181269.19 757814.60
 200859.26 -180499.92 753044.05
 -200991.33 -140278.40 761527.71
 -182629.80 -142160.16 765791.65
 -144189.13 -144189.13 773575.46
 -91815.217 -145641.01 781254.54
 -31470.776 -146364.07 785867.13
 31470.767 -146364.07 785867.13
 91815.211 -145641.01 781254.54
 144189.12 -144189.13 773575.46
 182629.79 -142160.17 765791.65
 200991.33 -140278.41 761527.71
 -201510.59 -88504.088 769129.71
 -183774.35 -90119.920 773372.74
 -145641.01 -91815.211 781254.54
 -92996.682 -92996.676 789115.48
 -31920.994 -93575.976 793866.86
 31920.989 -93575.978 793866.86
 92996.676 -92996.682 789115.48
 145641.01 -91815.217 781254.54
 183774.35 -90119.931 773372.74
 201510.59 -88504.097 769129.71
 -201823.14 -30209.663 773533.97
 -184374.68 -30823.487 777853.39
 -146364.07 -31470.766 785867.13
 -93575.978 -31920.990 793866.86
 -32141.010 -32141.007 798707.65
 32141.008 -32141.009 798707.65
 93575.976 -31920.995 793866.86
 146364.07 -31470.775 785867.13
 184374.68 -30823.496 777853.39
 201823.14 -30209.674 773533.97
 -201823.14 30209.674 773533.97
 -184374.68 30823.496 777853.39
 -146364.07 31470.775 785867.13
 -93575.976 31920.995 793866.86
 -32141.007 32141.009 798707.65
 32141.009 32141.007 798707.65
 93575.978 31920.989 793866.86
 146364.07 31470.766 785867.13
 184374.68 30823.486 777853.39
 201823.14 30209.663 773533.97
 -201510.59 88504.097 769129.71
 -183774.35 90119.931 773372.74
 -145641.01 91815.217 781254.54
 -92996.676 92996.682 789115.48
 -31920.989 93575.978 793866.86
 31920.994 93575.976 793866.86
 92996.682 92996.676 789115.48
 145641.01 91815.211 781254.54
 183774.35 90119.920 773372.74
 201510.59 88504.088 769129.71
 -200991.33 140278.41 761527.71
 -182629.79 142160.17 765791.65
 -144189.12 144189.13 773575.46
 -91815.211 145641.01 781254.54
 -31470.767 146364.07 785867.13
 31470.775 146364.07 785867.13
 91815.217 145641.01 781254.54
 144189.13 144189.13 773575.46
 182629.80 142160.16 765791.65
 200991.33 140278.40 761527.71
 -200859.26 180499.92 753044.05
 -181269.19 181269.19 757814.60
 -142160.17 182629.79 765791.65
 -90119.920 183774.35 773372.74
 -30823.486 184374.68 777853.39
 30823.496 184374.68 777853.39
 90119.931 183774.35 773372.74
 142160.17 182629.79 765791.65
 181269.19 181269.19 757814.60
 200859.27 180499.91 753044.05
 -202718.31 202718.31 746867.17
 -180499.91 200859.27 753044.05
 -140278.40 200991.33 761527.71
 -88504.088 201510.59 769129.71
 -30209.663 201823.14 773533.97
 30209.674 201823.14 773533.97
 88504.098 201510.59 769129.71
 140278.41 200991.33 761527.71
 180499.92 200859.26 753044.05
 202718.31 202718.31 746867.17
 -254461.38 -254461.37 714492.00
 -222967.91 -261337.50 722487.39
 -171921.21 -268178.77 733841.43
 -108255.37 -273099.64 744108.43
 -36953.443 -275624.13 750110.51
 36953.432 -275624.13 750110.51
 108255.36 -273099.64 744108.43
 171921.21 -268178.77 733841.43