# OOMMF OVF 2.0
#
# Segment count: 1
#
# Begin: Segment
# Begin: Header
#
# Title: Oxs_MinDriver::Magnetization
# Desc: Oxs vector field output
# Desc:  MIF source file: /home/ryan/Git/joommf/tools/omfvis/cube_example.mif
# Desc:  Iteration: 1399, State id: 2910
# Desc:  Stage: 2, Stage iteration: 221
# Desc:  Stage simulation time: 0 s
# Desc:  Total simulation time: -2 s
# meshunit: m
# meshtype: rectangular
# xbase: 2.5000000000000001e-09
# ybase: 2.5000000000000001e-09
# zbase: 2.5000000000000001e-09
# xnodes: 10
# ynodes: 10
# znodes: 10
# xstepsize: 5.0000000000000001e-09
# ystepsize: 5.0000000000000001e-09
# zstepsize: 5.0000000000000001e-09
# xmin: 0
# ymin: 0
# zmin: 0
# xmax: 4.9999999999999998e-08
# ymax: 4.9999999999999998e-08
# zmax: 4.9999999999999998e-08
# valuedim: 3
# valuelabels: Magnetization_x Magnetization_y Magnetization_z
# valueunits: A/m A/m A/m
#
# End: Header
#
# Begin: Data Text
 -235420.41 61421.079 762105.43
 -332423.67 102264.40 720441.87
 -450389.32 158446.63 641906.63
 -560318.90 214755.63 529077.26
 -648663.53 260838.51 388843.02
 -707704.37 292358.34 231691.89
 -732544.08 312823.61 74300.502
 -723927.08 334456.52 -63784.168
 -689467.79 369755.19 -167078.63
 -646099.41 415815.83 -222828.97
 -271708.37 25333.119 752019.15
 -375961.28 68555.068 702818.12
 -496197.73 133023.83 613263.79
 -599938.38 199279.02 490267.09
 -675498.25 254810.07 344635.95
 -719152.98 295353.54 188640.61
 -730037.74 325056.30 37192.650
 -710492.78 355336.66 -94529.726
 -667253.90 396252.59 -194309.33
 -618373.58 441568.48 -250262.65
 -329291.77 -20436.157 728799.90
 -435734.66 26939.788 670380.16
 -552388.86 99812.477 570003.52
 -644823.30 176065.45 439549.63
 -704249.22 241633.62 292653.78
 -731094.29 292421.32 141389.23
 -727475.29 332824.70 -2722.7635
 -696101.39 372577.42 -128953.17
 -642775.70 418634.13 -227123.01
 -586886.34 463282.42 -284488.71
 -393442.87 -63268.445 693685.67
 -496908.04 -12450.504 626839.20
 -604961.97 65714.544 519329.00
 -684280.72 148191.49 387038.99
 -729212.48 220817.90 243902.88
 -742775.48 279880.17 99758.084
 -728013.82 329521.80 -37566.698
 -686806.34 377550.17 -160477.17
 -624002.39 428248.44 -259276.47
 -560483.24 473203.37 -319275.92
 -455193.19 -96624.071 650740.31
 -551903.39 -44689.869 577412.74
 -648899.08 34130.707 466653.07
 -715978.75 117773.48 336903.32
 -749983.79 193303.83 200394.45
 -754754.93 257454.02 63737.181
 -732743.14 313694.09 -68436.139
 -684354.93 367986.33 -190379.58
 -613449.50 422482.25 -291870.63
 -542528.73 468124.74 -355699.04
 -510725.62 -117076.00 604526.72
 -598391.27 -67157.994 526704.56
 -683705.34 7358.7843 415322.60
 -740417.24 87190.432 290138.14
 -766871.52 161486.39 160717.81
 -766430.60 227292.70 30367.099
 -740168.71 287049.66 -98756.130
 -686843.63 344993.66 -221867.55
 -609324.92 401617.08 -327760.38
 -531665.17 447335.36 -396513.84
 -558895.78 -123006.43 559021.40
 -636476.26 -78710.658 478228.61
 -710512.34 -13062.655 367425.61
 -758704.69 58895.878 246776.15
 -779940.52 128615.37 123088.90
 -776339.64 193098.67 -3108.5304
 -747358.88 253386.15 -131339.90
 -690306.31 311993.36 -257171.81
 -607265.89 368148.98 -368367.30
 -523632.66 412229.49 -442578.45
 -598846.99 -114455.75 517959.62
 -666457.26 -79761.678 435284.73
 -730424.35 -26588.971 325228.08
 -771794.11 35052.660 207617.83
 -789148.32 98323.408 87048.466
 -783010.56 159593.19 -37742.180
 -751352.57 218110.35 -167024.52
 -690600.18 274510.31 -296167.98
 -602642.97 327002.67 -412178.00
 -513938.09 366823.78 -491231.06
 -628538.23 -94268.275 485853.05
 -687582.92 -73238.047 402325.64
 -743768.28 -34114.671 292651.55
 -780292.49 17302.306 175625.33
 -794652.63 74372.718 54734.734
 -785739.81 132177.87 -71707.461
 -750482.01 187929.15 -203615.77
 -685352.14 240172.48 -335573.57
 -593123.03 286012.20 -454314.97
 -500966.82 318428.03 -536316.92
 -644621.16 -71202.399 468394.89
 -697800.50 -65975.580 385644.51
 -749979.10 -37866.290 275857.74
 -784449.54 6976.6961 156812.75
 -797052.60 60475.056 32402.515
 -785385.66 116302.14 -98199.679
 -745997.66 169945.04 -233679.65
 -676344.96 218100.47 -367409.42
 -581290.51 256461.22 -486136.80
 -488875.22 278613.42 -568661.22
 -175366.50 33943.597 779804.09
 -249092.53 75289.734 756494.79
 -357116.81 143629.61 701311.71
 -477026.07 225467.81 601340.49
 -589214.26 303310.65 448139.72
 -671339.77 357357.69 248190.23
 -704275.38 377864.16 34854.925
 -687775.70 380849.02 -148049.35
 -639619.55 391993.97 -277898.47
 -586368.44 418691.53 -347662.85
 -207393.31 13599.920 772530.30
 -288006.36 58994.208 744024.21
 -400791.73 136018.79 678870.30
 -517224.32 227333.62 566390.71
 -615876.54 312318.21 403922.54
 -678350.93 371492.25 204532.44
 -693895.68 398131.07 657.65785
 -666351.84 407550.34 -172852.37
 -610773.53 421489.89 -298834.34
 -552602.49 443966.28 -370842.87
 -258581.42 -16187.610 756884.15
 -345333.57 34376.166 720807.19
 -460012.77 120115.56 643397.62
 -568081.38 220219.29 518446.73
 -648277.01 311668.35 350142.48
 -688353.78 376615.42 155980.43
 -685146.38 411426.42 -36093.365
 -644633.87 429208.92 -200566.39
 -579671.85 446372.23 -323623.83
 -515918.17 465471.01 -396440.64
 -316802.24 -45859.555 733166.58
 -407179.73 8114.1266 688577.39
 -519694.46 98588.190 600165.00
 -616699.85 202722.84 467530.48
 -679581.80 297318.88 299616.52
 -701690.36 366922.11 114012.28
 -683878.18 409602.36 -67353.848
 -631992.99 435575.08 -225519.85
 -557453.81 456632.21 -347465.49
 -487194.75 474649.79 -421128.07
 -374921.92 -69950.583 703235.72
 -466106.69 -15552.073 650002.07
 -573379.57 74357.767 552907.58
 -659090.25 177003.47 417456.36
 -708414.24 271049.16 254325.80
 -718334.92 343371.81 78043.222
 -690672.73 392322.36 -95154.285
 -629841.59 425164.80 -250068.91
 -546292.77 450079.77 -372816.86
 -469034.13 468296.72 -448001.30
 -429696.30 -85137.769 669412.17
 -519104.99 -33675.908 607779.52
 -619172.21 50350.133 504074.04
 -694594.64 146434.42 368910.90
 -734209.35 236425.44 212225.46
 -736583.77 309033.32 44076.690
 -702645.36 361858.97 -123885.38
 -634886.26 399401.32 -278205.01
 -543107.54 427091.04 -403270.93
 -458824.64 445549.42 -480588.88
 -479744.15 -89065.307 633966.03
 -565242.01 -44128.448 564406.02
 -656996.49 29162.709 455527.33
 -723427.63 114503.75 321778.42
 -756186.19 197409.28 170915.24
 -753817.32 267744.66 8499.6518
 -715454.76 321663.21 -157026.34
 -641805.79 361133.63 -312518.54
 -542460.45 389593.39 -440401.69
 -451537.66 407361.58 -519779.07
 -523698.19 -80263.306 599414.72
 -603794.95 -45783.638 522814.99
 -686970.72 12750.974 409766.57
 -745759.66 84494.458 276953.45
 -773421.67 158168.06 129621.72
 -767396.20 224040.56 -30147.918
 -724827.02 276387.10 -195540.18
 -645370.20 314863.64 -352644.57
 -539145.98 341582.57 -482330.76
 -442520.54 357172.01 -562675.51
 -559013.93 -59312.513 569197.20
 -633126.51 -39406.897 487440.17
 -708601.90 2237.2604 371319.73
 -761448.48 59787.211 237953.16
 -785142.52 123656.79 90885.766
 -775484.84 183848.87 -69446.766
 -728062.37 232709.28 -236160.07
 -642739.36 267827.22 -393896.80
 -531103.05 290375.73 -523078.85
 -430625.55 301971.99 -602805.57
 -581696.48 -33038.231 548213.17
 -650251.92 -29781.080 465065.07
 -720548.22 -2147.3809 347571.07
 -770012.41 44689.989 212329.22
 -791109.16 100948.09 62894.983
 -778213.97 156147.73 -100004.54
 -726310.95 201259.47 -268266.71
 -636560.37 232355.60 -425207.92
 -522504.79 249644.66 -551965.84
 -421200.77 254949.64 -630547.85
 -82454.938 23763.149 795384.50
 -127096.26 66527.584 787032.80
 -207658.71 150464.32 757785.16
 -319976.30 271007.33 681300.37
 -450856.25 406656.28 520921.59
 -563557.51 504968.73 259633.44
 -610473.41 515443.96 -40493.726
 -586872.94 466879.57 -278574.26
 -528963.97 423914.91 -424845.00
 -473687.42 414532.50 -493743.90
 -112443.00 11252.902 791978.50
 -164052.13 60342.185 780670.04
 -251802.74 155404.12 743266.40
 -364088.75 287316.80 651834.67
 -480207.27 427546.79 476030.17
 -565057.30 523674.35 215581.60
 -588576.11 537761.46 -66262.922
 -555160.87 497178.70 -290877.56
 -493040.63 456023.36 -434687.97
 -434292.93 440080.50 -507660.12
 -158987.11 -6413.0618 784016.56
 -218981.27 49752.900 767835.82
 -313681.29 155675.73 719283.75
 -422450.28 296507.43 611243.90
 -518953.38 437543.07 423371.53
 -574094.30 530583.47 169990.94
 -573356.43 550411.62 -91156.171
 -526751.46 520701.96 -302328.23
 -457386.63 483512.52 -443861.60
 -395286.81 463323.19 -518729.18
 -212006.35 -24001.986 771023.48
 -279814.99 36659.629 748571.74
 -379324.35 148331.07 688557.14
 -482350.57 291642.09 567699.58
 -560924.70 429628.65 375210.21
 -593060.27 520337.35 132395.49
 -573438.06 546540.11 -111636.43
 -513880.35 527309.23 -312844.95
 -435306.59 495536.11 -452716.39
 -368104.41 474669.91 -528382.08
 -266141.42 -38321.285 753458.84
 -340402.01 23116.349 723596.65
 -442520.62 134146.76 652824.74
 -539326.45 273479.88 523770.68
 -604136.48 405651.46 332364.26
 -620661.89 494667.87 100411.74
 -587573.37 526761.21 -131454.06
 -516399.66 516336.26 -326692.91
 -427550.17 490009.11 -465931.24
 -353552.07 470295.18 -542054.77
 -319171.20 -47026.605 732064.37
 -398195.88 11271.656 693767.24
 -500916.92 115428.86 612991.37
 -591825.22 245193.14 479190.19
 -646963.65 369219.41 291744.86
 -653508.07 456253.10 68995.082
 -610711.09 492831.50 -155399.72
 -528950.22 488950.89 -348049.84
 -429226.12 467042.65 -487479.33
 -347387.39 448866.64 -563773.66
 -370134.77 -47875.427 707607.37
 -452045.24 3317.7138 660033.40
 -553461.54 94897.753 569802.37
 -638878.70 210345.41 433115.25
 -687419.45 323875.46 250118.35
 -687496.05 407681.56 33836.863
 -636814.07 446619.91 -187078.85
 -544629.69 446698.69 -379260.82
 -433645.40 427714.51 -518663.64
 -343672.63 410820.87 -594235.08
 -417704.80 -38807.942 681187.67
 -500505.76 1170.6105 624093.43
 -598879.25 75308.688 525045.00
 -679134.55 172717.74 385933.74
 -723041.94 273425.20 206031.57
 -718313.24 352102.41 -7069.5551
 -659886.07 390902.85 -227476.02
 -556787.66 392431.35 -419505.83
 -434710.51 375036.27 -557112.71
 -337248.27 359217.72 -630258.86
 -458918.46 -19349.327 654995.77
 -540620.68 5474.0144 589660.34
 -634770.03 59467.420 483250.08
 -710404.33 137353.00 341262.13
 -750808.11 223811.86 161850.03
 -741651.95 295500.65 -51300.529
 -674890.94 331943.65 -272645.63
 -561001.97 333098.29 -462949.58
 -429639.40 316451.25 -596044.11
 -326510.61 301581.97 -665160.99
 -487954.54 4555.4378 633939.76
 -566650.58 13012.911 564568.67
 -656853.74 50252.034 453891.94
 -729354.42 112581.32 308816.42
 -767324.78 186992.86 127461.15
 -754239.25 251853.50 -87709.589
 -680213.36 285290.63 -309707.99
 -558537.22 285537.94 -496491.96
 -422328.02 268981.37 -623929.54
 -316509.87 253523.93 -689599.25
 26547.947 28420.908 799054.10
 15568.109 71873.403 796612.73
 -17734.071 168745.63 781799.47
 -84323.748 328135.56 724718.26
 -189847.48 535533.24 563171.45
 -310555.02 697565.39 238658.98
 -382802.32 685517.38 -153389.41
 -383816.92 556504.63 -427769.99
 -351247.97 444808.90 -564597.12
 -318579.98 396960.65 -617194.49
 -4105.6030 17816.163 799791.05
 -22241.798 70096.678 796612.68
 -64680.997 181105.03 776541.91
 -135998.20 354142.96 704334.62
 -230615.72 560323.45 522354.31
 -319055.58 704984.38 202979.22
 -360794.23 696782.03 -155956.16
 -350609.44 585977.54 -416777.34
 -314920.36 479187.11 -557857.40
 -279505.59 424613.60 -617721.55
 -48962.394 5635.2352 798480.39
 -76640.650 67108.873 793487.62
 -129644.03 191955.29 765732.06
 -204165.09 375052.63 676499.92
 -284750.83 574644.11 478227.05
 -342029.24 702869.92 170264.13
 -354159.53 700038.61 -156578.99
 -327408.54 608702.84 -402845.50
 -283426.30 510339.06 -547013.32
 -244748.25 452668.54 -612527.13
 -98944.327 -4984.3645 793842.03
 -136426.61 62532.164 785797.37
 -199382.05 195476.40 749690.45
 -275877.43 381545.98 646772.23
 -344360.36 572319.99 440301.91
 -378599.94 689666.39 144990.91
 -367905.93 692470.35 -158524.56
 -324217.64 616495.91 -393466.28
 -268700.41 526997.75 -538584.68
 -224143.44 470082.68 -607274.23
 -149984.02 -12753.793 785711.23
 -196816.24 56675.448 773337.74
 -268807.46 190781.70 728934.08
 -347196.03 373277.07 616538.04
 -407255.98 554812.07 407831.01
 -425831.72 665935.51 123277.09
 -397849.47 673997.98 -165657.83
 -338031.91 608937.68 -393610.63
 -269113.51 526731.61 -538638.78
 -216355.01 472041.15 -608578.39
 -200878.16 -16598.358 774191.49
 -256372.12 50507.493 756123.22
 -336412.37 178987.26 703413.30
 -417053.98 352224.99 584810.68
 -472182.08 524201.84 377169.07
 -480242.85 631915.33 100248.80
 -438058.03 644353.73 -181420.61
 -362151.90 586311.32 -406306.58
 -278383.61 509126.44 -550720.28
 -215914.16 456677.40 -620344.12
 -251387.10 -15046.440 759327.42
 -314634.89 45469.748 734123.55
 -401469.87 161835.00 672778.85
 -484583.66 320507.35 549957.92
 -537539.72 481888.53 344723.80
 -538285.44 587440.90 71846.920
 -482659.12 602936.26 -208585.82
 -389311.70 548563.63 -433029.27
 -289222.54 474421.08 -575564.90
 -216340.51 424044.72 -642948.57
 -300597.55 -6364.8235 741350.53
 -370273.71 43220.315 707834.29
 -462196.22 141526.64 637451.86
 -547675.18 280606.02 511187.01
 -600582.46 429310.98 308209.01
 -595867.59 532609.93 35615.723
 -525675.25 549558.43 -248296.32
 -412441.96 496340.13 -472798.17
 -294958.25 424494.02 -610577.15
 -211963.68 376862.76 -673086.81
 -345351.08 10124.181 721547.04
 -419380.79 44914.314 679781.18
 -514227.98 121372.97 600698.09
 -601657.13 237509.62 470741.84
 -655992.02 370937.02 268477.56
 -646868.78 470646.48 -7257.4548
 -560344.22 487513.60 -297228.61
 -425631.45 434490.48 -519669.02
 -291748.53 365933.08 -648826.46
 -200287.56 322707.26 -704091.55
 -378161.08 29744.355 704350.39
 -453166.69 49204.254 657433.57
 -548819.28 106923.77 572157.94
 -637678.27 203146.98 438289.55
 -693900.29 321768.09 234451.89
 -681372.39 416655.48 -46150.560
 -579859.30 432775.86 -341274.45
 -427579.07 380766.30 -558742.48
 -282910.71 316559.61 -678049.81
 -186022.90 277784.59 -726795.16
 142935.35 37077.120 786253.63
 167657.38 77383.261 778397.61
 193082.79 175135.51 756337.61
 204352.19 346254.17 691627.23
 182905.98 583538.17 515779.61
 107950.11 777433.85 154736.51
 -577.98697 751538.96 -274205.88
 -83275.478 578420.98 -546346.38
 -125749.17 431432.07 -661856.11
 -141800.05 363598.33 -698347.34
 110423.10 24994.179 791948.25
 128462.16 76610.140 785893.35
 144152.17 191263.65 763307.52
 145298.69 379130.98 689309.79
 120321.99 614610.70 497771.34
 62938.537 783583.66 148443.22
 -9773.2576 762013.27 -243393.21
 -67157.362 611968.25 -510866.67
 -98892.188 470325.13 -639542.50
 -109893.57 396042.60 -686348.06
 65241.200 13520.601 797220.66
 73469.033 76478.351 792939.70
 76803.323 208401.68 768550.58
 67636.839 410255.60 683458.56
 42217.349 639502.96 478804.40
 3836.5969 786949.50 143860.20
 -35737.404 769925.71 -214329.75
 -64871.066 641965.17 -472940.23
 -80123.741 509354.99 -611667.95
 -84319.038 432249.10 -667870.51
 16134.484 5457.8692 799818.66
 13834.696 76204.296 796242.12
 4451.4445 219701.67 769227.77
 -13918.787 428953.37 675133.52
 -38410.556 651217.63 463076.91
 -61228.349 785253.89 140097.89
 -75402.999 772098.76 -195391.66
 -79768.155 659582.02 -445632.80
 -77183.654 535668.50 -589153.58
 -72283.266 459197.08 -651086.15
 -33491.978 950.20269 799298.06
 -46264.169 75165.141 795116.24
 -68182.731 223309.96 765169.12
 -95292.032 433922.94 665304.68
 -119395.43 650369.59 450293.39
 -130328.42 777684.52 134986.26
 -124486.91 767493.68 -188298.85
 -107131.89 663885.99 -433333.77
 -86612.102 545881.91 -578369.50
 -71048.375 470985.49 -642747.85
 -83029.270 -56.109665 795679.67
 -106100.48 73311.054 789536.69
 -140322.49 219281.76 756455.62
 -176270.41 425988.03 653806.50
 -201221.34 637983.08 438734.05
 -202678.07 763504.26 126423.28
 -178956.07 755268.89 -193761.78
 -140616.32 654888.81 -437433.08
 -101729.01 539212.61 -582152.01
 -74661.788 465402.77 -646394.53
 -132738.22 2936.5345 788905.53
 -165924.15 71119.298 779365.91
 -212140.46 208155.35 742743.41
 -257280.37 405682.79 639709.53
 -284534.86 614009.34 426652.60
 -277605.08 741788.91 112626.04
 -235079.99 734468.72 -212821.75
 -173825.21 632188.61 -458391.04
 -115334.01 515600.56 -600711.35
 -76507.705 442409.21 -662133.42
 -182058.03 10916.846 778932.41
 -224910.71 69505.384 764581.04
 -282480.14 190938.23 723704.06
 -337310.41 373447.28 621899.36
 -368889.75 577634.32 412624.45
 -354056.47 711428.47 92268.867
 -289009.69 704076.23 -246475.29
 -200444.36 595337.03 -495374.49
 -120712.44 476110.36 -631464.51
 -70641.336 404431.30 -686618.62
 -227777.89 24336.234 766501.78
 -278916.39 69543.075 746571.77
 -346346.17 170356.60 700730.30
 -411164.76 332338.26 600412.21
 -449899.47 529884.58 395995.96
 -428312.02 672500.30 65514.539
 -335523.19 664473.16 -293086.35
 -214799.20 546401.80 -543420.99
 -113699.04 425614.96 -667775.74
 -54018.797 358374.78 -713196.67
 -261491.63 39724.517 755012.64
 -317262.86 71348.617 730926.57
 -391381.87 153329.92 680668.91
 -464800.86 294839.39 580542.76
 -512332.74 482886.53 379915.47
 -486981.18 633528.30 38616.322
 -365938.53 624859.56 -340058.12
 -215358.99 498987.40 -587053.73
 -98537.810 379917.24 -697103.43
 -31911.588 319313.53 -732816.84
 261491.63 39724.517 755012.64
 317262.86 71348.617 730926.57
 391381.87 153329.92 680668.91
 464800.86 294839.39 580542.76
 512332.74 482886.53 379915.47
 486981.18 633528.30 38616.322
 365938.53 624859.56 -340058.12
 215358.99 498987.40 -587053.73
 98537.809 379917.24 -697103.43
 31911.589 319313.53 -732816.84
 227777.89 24336.234 766501.78
 278916.39 69543.076 746571.77
 346346.17 170356.60 700730.30
 411164.76 332338.27 600412.21
 449899.47 529884.58 395995.96
 428312.02 672500.31 65514.539
 335523.20 664473.16 -293086.35
 214799.20 546401.81 -543420.99
 113699.04 425614.96 -667775.74
 54018.795 358374.78 -713196.67
 182058.03 10916.847 778932.41
 224910.71 69505.383 764581.04
 282480.14 190938.23 723704.06
 337310.41 373447.28 621899.36
 368889.75 577634.32 412624.45
 354056.47 711428.47 92268.866
 289009.69 704076.23 -246475.29
 200444.37 595337.02 -495374.49
 120712.44 476110.36 -631464.51
 70641.338 404431.30 -686618.62
 132738.22 2936.5340 788905.53
 165924.15 71119.299 779365.91
 212140.46 208155.34 742743.41
 257280.37 405682.79 639709.53
 284534.87 614009.34 426652.60
 277605.08 741788.91 112626.04
 235079.99 734468.72 -212821.75
 173825.21 632188.62 -458391.04
 115334.01 515600.56 -600711.35
 76507.703 442409.21 -662133.42
 83029.270 -56.109152 795679.67
 106100.48 73311.053 789536.69
 140322.49 219281.76 756455.62
 176270.41 425988.03 653806.50
 201221.34 637983.08 438734.05
 202678.07 763504.26 126423.28
 178956.07 755268.89 -193761.78
 140616.32 654888.81 -437433.08
 101729.00 539212.61 -582152.02
 74661.790 465402.77 -646394.53
 33491.978 950.20216 799298.06
 46264.170 75165.142 795116.24
 68182.729 223309.96 765169.12
 95292.033 433922.94 665304.68
 119395.43 650369.59 450293.39
 130328.42 777684.52 134986.26
 124486.91 767493.68 -188298.85
 107131.89 663885.99 -433333.77
 86612.106 545881.91 -578369.50
 71048.373 470985.49 -642747.85
 -16134.484 5457.8695 799818.66
 -13834.696 76204.295 796242.12
 -4451.4436 219701.67 769227.77
 13918.787 428953.37 675133.52
 38410.555 651217.63 463076.91
 61228.350 785253.89 140097.89
 75402.997 772098.76 -195391.66
 79768.158 659582.02 -445632.80
 77183.650 535668.50 -589153.58
 72283.268 459197.08 -651086.15
 -65241.199 13520.601 797220.66
 -73469.033 76478.351 792939.70
 -76803.323 208401.68 768550.58
 -67636.840 410255.60 683458.56
 -42217.347 639502.96 478804.40
 -3836.5987 786949.50 143860.20
 35737.406 769925.71 -214329.75
 64871.062 641965.18 -472940.23
 80123.745 509354.99 -611667.95
 84319.037 432249.10 -667870.51
 -110423.10 24994.179 791948.25
 -128462.16 76610.140 785893.35
 -144152.17 191263.65 763307.52
 -145298.69 379130.98 689309.79
 -120321.99 614610.70 497771.34
 -62938.535 783583.66 148443.22
 9773.2553 762013.27 -243393.21
 67157.365 611968.25 -510866.67
 98892.185 470325.13 -639542.50
 109893.57 396042.60 -686348.06
 -142935.35 37077.120 786253.63
 -167657.38 77383.261 778397.61
 -193082.79 175135.51 756337.62
 -204352.19 346254.17 691627.23
 -182905.98 583538.17 515779.61
 -107950.11 777433.85 154736.51
 577.98793 751538.96 -274205.88
 83275.476 578420.98 -546346.38
 125749.17 431432.07 -661856.11
 141800.05 363598.33 -698347.34
 378161.08 29744.354 704350.39
 453166.69 49204.255 657433.57
 548819.28 106923.77 572157.94
 637678.27 203146.98 438289.55
 693900.29 321768.09 234451.89
 681372.39 416655.48 -46150.559
 579859.30 432775.86 -341274.45
 427579.07 380766.30 -558742.48
 282910.71 316559.61 -678049.81
 186022.90 277784.59 -726795.16
 345351.08 10124.182 721547.04
 419380.79 44914.313 679781.18
 514227.98 121372.97 600698.09
 601657.13 237509.61 470741.84
 655992.02 370937.02 268477.56
 646868.78 470646.48 -7257.4562
 560344.22 487513.60 -297228.61
 425631.46 434490.48 -519669.02
 291748.53 365933.08 -648826.46
 200287.56 322707.26 -704091.55
 300597.55 -6364.8244 741350.53
 370273.71 43220.316 707834.29
 462196.22 141526.64 637451.86
 547675.18 280606.02 511187.01
 600582.46 429310.98 308209.01
 595867.59 532609.93 35615.725
 525675.25 549558.43 -248296.32
 412441.95 496340.13 -472798.17
 294958.25 424494.02 -610577.15
 211963.68 376862.76 -673086.81
 251387.10 -15046.439 759327.42
 314634.89 45469.746 734123.55
 401469.87 161835.00 672778.85
 484583.66 320507.35 549957.92
 537539.72 481888.52 344723.80
 538285.44 587440.90 71846.917
 482659.12 602936.26 -208585.82
 389311.70 548563.63 -433029.27
 289222.54 474421.08 -575564.90
 216340.51 424044.72 -642948.57
 200878.16 -16598.359 774191.49
 256372.12 50507.495 756123.22
 336412.37 178987.26 703413.30
 417053.98 352224.99 584810.68
 472182.08 524201.84 377169.07
 480242.85 631915.33 100248.80
 438058.03 644353.73 -181420.61
 362151.90 586311.32 -406306.58
 278383.62 509126.44 -550720.28
 215914.16 456677.40 -620344.12
 149984.02 -12753.791 785711.23
 196816.24 56675.445 773337.74
 268807.46 190781.70 728934.08
 347196.03 373277.07 616538.04
 407255.98 554812.07 407831.01
 425831.72 665935.51 123277.09
 397849.47 673997.98 -165657.83
 338031.91 608937.68 -393610.63
 269113.51 526731.61 -538638.78
 216355.02 472041.15 -608578.39
 98944.327 -4984.3655 793842.03
 136426.61 62532.166 785797.37
 199382.05 195476.39 749690.45
 275877.43 381545.98 646772.23
 344360.36 572319.99 440301.91
 378599.94 689666.39 144990.91
 367905.93 692470.35 -158524.56
 324217.64 616495.91 -393466.28
 268700.42 526997.75 -538584.68
 224143.44 470082.68 -607274.23
 48962.393 5635.2355 798480.39
 76640.651 67108.873 793487.62
 129644.03 191955.29 765732.06
 204165.10 375052.63 676499.92
 284750.82 574644.11 478227.05
 342029.24 702869.92 170264.13
 354159.53 700038.61 -156578.99
 327408.54 608702.84 -402845.50
 283426.30 510339.07 -547013.32
 244748.25 452668.54 -612527.13
 4105.6035 17816.163 799791.05
 22241.797 70096.678 796612.68
 64680.998 181105.03 776541.91
 135998.20 354142.96 704334.62
 230615.72 560323.45 522354.31
 319055.58 704984.38 202979.22
 360794.23 696782.03 -155956.16
 350609.44 585977.54 -416777.34
 314920.36 479187.11 -557857.40
 279505.58 424613.60 -617721.55
 -26547.947 28420.908 799054.10
 -15568.109 71873.403 796612.73
 17734.070 168745.63 781799.47
 84323.749 328135.56 724718.26
 189847.47 535533.24 563171.45
 310555.02 697565.39 238658.98
 382802.32 685517.38 -153389.41
 383816.92 556504.63 -427769.99
 351247.97 444808.90 -564597.12
 318579.98 396960.65 -617194.49
 487954.54 4555.4381 633939.76
 566650.58 13012.910 564568.67
 656853.74 50252.034 453891.94
 729354.42 112581.32 308816.42
 767324.78 186992.86 127461.15
 754239.25 251853.50 -87709.590
 680213.36 285290.63 -309707.99
 558537.22 285537.93 -496491.96
 422328.01 268981.37 -623929.54
 316509.87 253523.93 -689599.25
 458918.46 -19349.327 654995.77
 540620.68 5474.0158 589660.34
 634770.02 59467.419 483250.08
 710404.33 137353.00 341262.13
 750808.11 223811.86 161850.03
 741651.95 295500.65 -51300.527
 674890.94 331943.65 -272645.63
 561001.97 333098.30 -462949.58
 429639.41 316451.25 -596044.11
 326510.61 301581.97 -665160.99
 417704.80 -38807.941 681187.67
 500505.76 1170.6090 624093.43
 598879.25 75308.689 525045.00
 679134.55 172717.74 385933.74
 723041.94 273425.20 206031.57
 718313.24 352102.41 -7069.5589
 659886.07 390902.85 -227476.02
 556787.66 392431.35 -419505.83
 434710.51 375036.27 -557112.71
 337248.27 359217.72 -630258.86
 370134.77 -47875.428 707607.37
 452045.24 3317.7155 660033.40
 553461.54 94897.753 569802.37
 638878.69 210345.41 433115.25
 687419.45 323875.46 250118.35
 687496.05 407681.56 33836.868
 636814.07 446619.91 -187078.85
 544629.70 446698.69 -379260.82
 433645.40 427714.51 -518663.64
 343672.63 410820.87 -594235.08
 319171.20 -47026.604 732064.37
 398195.88 11271.654 693767.24
 500916.92 115428.86 612991.37
 591825.22 245193.14 479190.19
 646963.65 369219.41 291744.86
 653508.06 456253.10 68995.078
 610711.10 492831.50 -155399.71
 528950.22 488950.89 -348049.84
 429226.13 467042.65 -487479.33
 347387.39 448866.64 -563773.66
 266141.42 -38321.287 753458.84
 340402.01 23116.352 723596.65
 442520.62 134146.76 652824.74
 539326.45 273479.88 523770.68
 604136.48 405651.46 332364.26
 620661.89 494667.87 100411.74
 587573.37 526761.21 -131454.06
 516399.66 516336.26 -326692.91
 427550.17 490009.11 -465931.24
 353552.07 470295.18 -542054.77
 212006.35 -24001.985 771023.48
 279814.99 36659.627 748571.74
 379324.35 148331.07 688557.14
 482350.57 291642.09 567699.59
 560924.70 429628.65 375210.21
 593060.27 520337.35 132395.49
 573438.07 546540.11 -111636.43
 513880.35 527309.23 -312844.95
 435306.59 495536.11 -452716.40
 368104.41 474669.91 -528382.08
 158987.11 -6413.0622 784016.56
 218981.27 49752.901 767835.82
 313681.29 155675.73 719283.75
 422450.28 296507.43 611243.90
 518953.38 437543.07 423371.52
 574094.30 530583.47 169990.94
 573356.43 550411.62 -91156.172
 526751.46 520701.96 -302328.23
 457386.63 483512.52 -443861.60
 395286.81 463323.19 -518729.18
 112443.00 11252.902 791978.50
 164052.13 60342.185 780670.04
 251802.74 155404.12 743266.40
 364088.75 287316.81 651834.67
 480207.27 427546.79 476030.17
 565057.30 523674.35 215581.60
 588576.11 537761.46 -66262.920
 555160.87 497178.70 -290877.56
 493040.63 456023.36 -434687.97
 434292.93 440080.50 -507660.12
 82454.939 23763.149 795384.50
 127096.26 66527.583 787032.80
 207658.71 150464.32 757785.16
 319976.30 271007.33 681300.37
 450856.26 406656.28 520921.59
 563557.51 504968.72 259633.44
 610473.41 515443.96 -40493.727
 586872.94 466879.57 -278574.26
 528963.97 423914.91 -424845.00
 473687.42 414532.50 -493743.90
 581696.48 -33038.231 548213.17
 650251.92 -29781.079 465065.07
 720548.22 -2147.3814 347571.07
 770012.41 44689.990 212329.22
 791109.16 100948.09 62894.982
 778213.97 156147.73 -100004.54
 726310.95 201259.47 -268266.71
 636560.37 232355.60 -425207.92
 522504.79 249644.66 -551965.84
 421200.77 254949.64 -630547.85
 559013.93 -59312.513 569197.20
 633126.51 -39406.898 487440.17
 708601.90 2237.2613 371319.72
 761448.48 59787.210 237953.16
 785142.52 123656.79 90885.767
 775484.84 183848.87 -69446.768
 728062.37 232709.28 -236160.06
 642739.36 267827.22 -393896.80
 531103.05 290375.74 -523078.84
 430625.55 301971.99 -602805.57
 523698.19 -80263.307 599414.72
 603794.95 -45783.636 522814.99
 686970.72 12750.973 409766.57
 745759.66 84494.458 276953.46
 773421.67 158168.06 129621.72
 767396.20 224040.56 -30147.915
 724827.02 276387.10 -195540.18
 645370.20 314863.64 -352644.57
 539145.98 341582.56 -482330.76
 442520.54 357172.01 -562675.51
 479744.15 -89065.307 633966.03
 565242.01 -44128.450 564406.02
 656996.49 29162.709 455527.33
 723427.63 114503.75 321778.42
 756186.19 197409.28 170915.25
 753817.32 267744.66 8499.6475
 715454.76 321663.21 -157026.34
 641805.79 361133.63 -312518.54
 542460.46 389593.39 -440401.68
 451537.66 407361.58 -519779.07
 429696.30 -85137.771 669412.17
 519104.99 -33675.906 607779.52
 619172.21 50350.132 504074.04
 694594.63 146434.42 368910.90
 734209.35 236425.44 212225.46
 736583.77 309033.32 44076.694
 702645.36 361858.97 -123885.38
 634886.26 399401.32 -278205.00
 543107.54 427091.04 -403270.93
 458824.64 445549.42 -480588.88
 374921.91 -69950.582 703235.72
 466106.69 -15552.075 650002.07
 573379.57 74357.768 552907.58
 659090.25 177003.47 417456.36
 708414.24 271049.16 254325.80
 718334.92 343371.81 78043.221
 690672.74 392322.36 -95154.283
 629841.59 425164.80 -250068.91
 546292.77 450079.77 -372816.86
 469034.13 468296.73 -448001.30
 316802.24 -45859.556 733166.58
 407179.73 8114.1283 688577.39
 519694.46 98588.189 600165.00
 616699.85 202722.84 467530.48
 679581.80 297318.88 299616.52
 701690.36 366922.11 114012.28
 683878.18 409602.36 -67353.849
 631992.99 435575.08 -225519.85
 557453.81 456632.21 -347465.49
 487194.75 474649.79 -421128.07
 258581.42 -16187.610 756884.15
 345333.57 34376.165 720807.19
 460012.77 120115.56 643397.62
 568081.38 220219.28 518446.73
 648277.01 311668.35 350142.48
 688353.78 376615.42 155980.43
 685146.39 411426.42 -36093.364
 644633.87 429208.92 -200566.39
 579671.85 446372.23 -323623.84
 515918.17 465471.01 -396440.64
 207393.31 13599.920 772530.30
 288006.36 58994.207 744024.21
 400791.73 136018.79 678870.30
 517224.32 227333.62 566390.71
 615876.54 312318.21 403922.54
 678350.93 371492.25 204532.45
 693895.68 398131.07 657.65671
 666351.84 407550.34 -172852.37
 610773.53 421489.89 -298834.34
 552602.49 443966.28 -370842.87
 175366.50 33943.597 779804.09
 249092.53 75289.734 756494.79
 357116.81 143629.61 701311.71
 477026.07 225467.81 601340.49
 589214.26 303310.65 448139.72
 671339.77 357357.70 248190.23
 704275.38 377864.16 34854.925
 687775.70 380849.02 -148049.35
 639619.55 391993.97 -277898.47
 586368.44 418691.53 -347662.85
 644621.16 -71202.399 468394.89
 697800.50 -65975.580 385644.51
 749979.10 -37866.290 275857.74
 784449.54 6976.6959 156812.75
 797052.60 60475.056 32402.515
 785385.66 116302.14 -98199.679
 745997.66 169945.04 -233679.65