# OOMMF OVF 2.0
#
# Segment count: 1
#
# Begin: Segment
# Begin: Header
#
# Title: Oxs_MinDriver::Magnetization
# Desc: Oxs vector field output
# Desc:  MIF source file: /home/ryan/Git/joommf/tools/omfvis/cube_example.mif
# Desc:  Iteration: 4403, State id: 9292
# Desc:  Stage: 22, Stage iteration: 156
# Desc:  Stage simulation time: 0 s
# Desc:  Total simulation time: -2 s
# meshunit: m
# meshtype: rectangular
# xbase: 2.5000000000000001e-09
# ybase: 2.5000000000000001e-09
# zbase: 2.5000000000000001e-09
# xnodes: 10
# ynodes: 10
# znodes: 10
# xstepsize: 5.0000000000000001e-09
# ystepsize: 5.0000000000000001e-09
# zstepsize: 5.0000000000000001e-09
# xmin: 0
# ymin: 0
# zmin: 0
# xmax: 4.9999999999999998e-08
# ymax: 4.9999999999999998e-08
# zmax: 4.9999999999999998e-08
# valuedim: 3
# valuelabels: Magnetization_x Magnetization_y Magnetization_z
# valueunits: A/m A/m A/m
#
# End: Header
#
# Begin: Data Text
 419098.67 135241.66 667881.72
 425982.66 146077.64 661211.08
 418154.71 171808.33 660021.62
 389337.13 211760.25 666013.66
 335683.84 262410.27 677094.68
 256395.53 316946.25 688335.97
 155746.38 366154.21 694027.49
 44486.846 401290.43 690642.39
 -60467.603 417909.45 679481.69
 -135241.67 419098.67 667881.72
 417909.45 60467.600 679481.69
 425091.95 77477.529 673271.17
 415511.82 112337.98 674336.79
 382984.82 164879.18 682742.62
 324149.04 230669.36 694059.83
 239392.04 300455.60 701724.94
 135045.28 362093.57 700464.86
 23685.480 405100.39 689443.74
 -77477.532 425091.95 673271.17
 -146077.64 425982.66 661211.08
 401290.43 -44486.849 690642.39
 405100.38 -23685.483 689443.74
 390274.98 20174.462 698053.32
 350966.84 86984.597 713621.72
 284510.16 171105.14 727857.82
 193372.13 259891.94 731480.28
 87002.469 337123.10 720262.86
 -20174.466 390274.98 698053.32
 -112337.98 415511.83 674336.79
 -171808.34 418154.71 660021.62
 366154.20 -155746.39 694027.49
 362093.57 -135045.28 700464.86
 337123.10 -87002.474 720262.86
 287126.04 -10358.600 746626.64
 211152.52 88861.732 766497.36
 114694.14 194860.91 767381.57
 10358.594 287126.04 746626.64
 -86984.603 350966.84 713621.72
 -164879.18 382984.82 682742.62
 -211760.25 389337.13 666013.66
 316946.25 -256395.53 688335.97
 300455.60 -239392.04 701724.94
 259891.94 -193372.13 731480.28
 194860.91 -114694.15 767381.57
 107941.22 -8491.0016 792639.01
 8490.9932 107941.22 792639.01
 -88861.740 211152.52 766497.36
 -171105.15 284510.16 727857.81
 -230669.36 324149.04 694059.83
 -262410.28 335683.84 677094.68
 262410.27 -335683.84 677094.68
 230669.36 -324149.04 694059.83
 171105.14 -284510.16 727857.81
 88861.729 -211152.52 766497.36
 -8491.0038 -107941.23 792639.01
 -107941.23 8490.9952 792639.01
 -194860.92 114694.14 767381.57
 -259891.94 193372.13 731480.28
 -300455.60 239392.04 701724.93
 -316946.26 256395.53 688335.97
 211760.25 -389337.13 666013.66
 164879.18 -382984.82 682742.62
 86984.595 -350966.84 713621.72
 -10358.602 -287126.04 746626.64
 -114694.15 -194860.92 767381.57
 -211152.53 -88861.737 766497.36
 -287126.05 10358.594 746626.64
 -337123.11 87002.469 720262.86
 -362093.57 135045.27 700464.86
 -366154.21 155746.38 694027.49
 171808.33 -418154.71 660021.62
 112337.98 -415511.83 674336.79
 20174.461 -390274.98 698053.32
 -87002.477 -337123.10 720262.86
 -193372.14 -259891.94 731480.28
 -284510.17 -171105.15 727857.81
 -350966.85 -86984.602 713621.71
 -390274.98 -20174.467 698053.31
 -405100.39 23685.479 689443.74
 -401290.43 44486.845 690642.39
 146077.64 -425982.66 661211.08
 77477.529 -425091.95 673271.17
 -23685.485 -405100.39 689443.74
 -135045.28 -362093.57 700464.86
 -239392.04 -300455.60 701724.93
 -324149.05 -230669.36 694059.83
 -382984.82 -164879.18 682742.62
 -415511.83 -112337.98 674336.78
 -425091.95 -77477.534 673271.17
 -417909.45 -60467.604 679481.68
 135241.66 -419098.67 667881.72
 60467.600 -417909.45 679481.69
 -44486.850 -401290.43 690642.39
 -155746.39 -366154.21 694027.49
 -256395.54 -316946.25 688335.97
 -335683.84 -262410.28 677094.68
 -389337.13 -211760.25 666013.66
 -418154.72 -171808.34 660021.61
 -425982.66 -146077.64 661211.08
 -419098.68 -135241.67 667881.72
 364515.36 88132.866 706654.90
 377667.99 92418.735 699160.69
 378036.53 112330.75 696038.92
 358644.83 146585.69 699918.94
 316508.10 191652.84 709289.65
 251137.05 241962.18 719989.23
 165814.40 290147.48 726856.26
 69290.941 328756.67 726028.80
 -23134.548 353179.47 717446.20
 -88132.868 364515.36 706654.90
 353179.47 23134.546 717446.20
 366125.80 35765.175 710403.23
 364579.55 65006.661 709123.32
 341978.31 110630.66 714710.92
 296356.28 168810.18 723654.67
 228470.07 232307.57 730639.87
 143059.08 291622.15 731088.65
 49909.287 337857.15 723437.36
 -35765.177 366125.80 710403.23
 -92418.737 377667.99 699160.69
 328756.67 -69290.943 726028.80
 337857.15 -49909.291 723437.36
 330893.77 -10610.144 728283.42
 302413.52 48300.678 739062.32
 251694.31 122305.09 749460.76
 181156.45 201961.98 752591.32
 97283.947 275023.16 744914.83
 10610.140 330893.77 728283.42
 -65006.664 364579.55 709123.32
 -112330.76 378036.54 696038.92
 290147.48 -165814.40 726856.26
 291622.15 -143059.09 731088.65
 275023.15 -97283.952 744914.83
 237513.57 -28336.267 763403.14
 180355.51 58685.509 777192.32
 107987.39 152246.96 777920.04
 28336.262 237513.57 763403.14
 -48300.683 302413.52 739062.31
 -110630.66 341978.31 714710.91
 -146585.69 358644.83 699918.94
 241962.18 -251137.05 719989.23
 232307.57 -228470.07 730639.87
 201961.97 -181156.45 752591.32
 152246.96 -107987.39 777920.04
 87408.354 -14188.817 795083.93
 14188.810 87408.354 795083.93
 -58685.514 180355.51 777192.32
 -122305.10 251694.31 749460.76
 -168810.18 296356.28 723654.67
 -191652.84 316508.10 709289.65
 191652.84 -316508.10 709289.65
 168810.18 -296356.28 723654.67
 122305.09 -251694.32 749460.76
 58685.508 -180355.51 777192.32
 -14188.821 -87408.359 795083.93
 -87408.360 14188.813 795083.93
 -152246.97 107987.39 777920.04
 -201961.98 181156.45 752591.32
 -232307.58 228470.07 730639.87
 -241962.18 251137.05 719989.23
 146585.69 -358644.83 699918.94
 110630.66 -341978.31 714710.91
 48300.678 -302413.53 739062.31
 -28336.271 -237513.58 763403.14
 -107987.39 -152246.97 777920.04
 -180355.52 -58685.513 777192.32
 -237513.58 28336.263 763403.14
 -275023.16 97283.947 744914.82
 -291622.15 143059.08 731088.65
 -290147.48 165814.40 726856.26
 112330.75 -378036.54 696038.92
 65006.660 -364579.55 709123.32
 -10610.146 -330893.77 728283.42
 -97283.951 -275023.16 744914.82
 -181156.45 -201961.98 752591.32
 -251694.32 -122305.10 749460.76
 -302413.53 -48300.682 739062.31
 -330893.78 10610.140 728283.42
 -337857.15 49909.286 723437.36
 -328756.68 69290.939 726028.80
 92418.735 -377667.99 699160.69
 35765.174 -366125.80 710403.23
 -49909.290 -337857.15 723437.36
 -143059.09 -291622.15 731088.65
 -228470.07 -232307.58 730639.87
 -296356.29 -168810.18 723654.66
 -341978.31 -110630.66 714710.91
 -364579.55 -65006.664 709123.32
 -366125.80 -35765.178 710403.23
 -353179.47 -23134.550 717446.20
 88132.866 -364515.36 706654.90
 23134.546 -353179.47 717446.20
 -69290.943 -328756.67 726028.80
 -165814.40 -290147.48 726856.26
 -251137.05 -241962.18 719989.22
 -316508.10 -191652.84 709289.65
 -358644.84 -146585.69 699918.94
 -378036.54 -112330.76 696038.92
 -377667.99 -92418.738 699160.69
 -364515.37 -88132.870 706654.90
 293625.30 28331.133 743627.28
 311118.15 31091.665 736368.66
 320454.56 47745.218 731456.95
 313445.12 77205.929 731977.73
 287150.50 116344.01 737569.43
 241114.95 160992.33 745617.23
 177468.26 205965.86 752384.93
 102241.22 245699.28 754439.26
 27083.185 275662.56 750517.59
 -28331.135 293625.30 743627.28
 275662.56 -27083.187 750517.59
 291935.98 -15864.766 744662.13
 299083.37 9798.1439 741925.29
 289493.10 49384.400 744147.11
 261277.76 99711.462 749527.56
 214946.04 155590.94 754711.64
 153465.43 210425.68 756418.80
 83325.277 257537.13 752815.73
 15864.763 291935.98 744662.13
 -31091.667 311118.15 736368.66
 245699.28 -102241.22 754439.26
 257537.13 -83325.279 752815.73
 259316.07 -47409.333 755319.49
 244949.28 4222.0035 761565.51
 213813.57 67879.296 767903.74
 167530.67 137062.86 770160.53
 109869.41 203509.06 765841.22
 47409.329 259316.08 755319.49
 -9798.1471 299083.37 741925.29
 -47745.220 320454.56 731456.95
 205965.86 -177468.27 752384.93
 210425.68 -153465.43 756418.80
 203509.06 -109869.42 765841.22
 181962.49 -48590.760 777514.37
 146862.89 25974.893 785974.93
 100982.78 106048.49 786483.44
 48590.756 181962.49 777514.37
 -4222.0077 244949.28 761565.51
 -49384.402 289493.10 744147.11
 -77205.932 313445.12 731977.73
 160992.33 -241114.95 745617.23
 155590.94 -214946.04 754711.64
 137062.86 -167530.68 770160.53
 106048.48 -100982.79 786483.44
 65803.189 -20301.333 797030.61
 20301.329 65803.192 797030.61
 -25974.899 146862.90 785974.93
 -67879.299 213813.57 767903.74
 -99711.466 261277.76 749527.55
 -116344.01 287150.50 737569.43
 116344.01 -287150.50 737569.43
 99711.461 -261277.76 749527.55
 67879.296 -213813.57 767903.74
 25974.890 -146862.90 785974.93
 -20301.332 -65803.194 797030.61
 -65803.198 20301.329 797030.61
 -106048.49 100982.78 786483.44
 -137062.87 167530.67 770160.53
 -155590.95 214946.04 754711.64
 -160992.34 241114.95 745617.23
 77205.929 -313445.12 731977.73
 49384.400 -289493.10 744147.11
 4222.0016 -244949.28 761565.51
 -48590.759 -181962.49 777514.37
 -100982.79 -106048.49 786483.44
 -146862.90 -25974.896 785974.93
 -181962.50 48590.757 777514.36
 -203509.06 109869.41 765841.22
 -210425.69 153465.43 756418.79
 -205965.86 177468.26 752384.93
 47745.218 -320454.56 731456.95
 9798.1440 -299083.37 741925.29
 -47409.331 -259316.08 755319.49
 -109869.42 -203509.06 765841.22
 -167530.68 -137062.87 770160.53
 -213813.58 -67879.298 767903.74
 -244949.28 -4222.0074 761565.51
 -259316.08 47409.330 755319.49
 -257537.14 83325.277 752815.73
 -245699.29 102241.22 754439.26
 31091.666 -311118.15 736368.66
 -15864.765 -291935.98 744662.13
 -83325.280 -257537.13 752815.73
 -153465.43 -210425.68 756418.80
 -214946.04 -155590.95 754711.64
 -261277.76 -99711.465 749527.55
 -289493.11 -49384.402 744147.11
 -299083.37 -9798.1477 741925.29
 -291935.99 15864.763 744662.13
 -275662.56 27083.184 750517.59
 28331.134 -293625.30 743627.28
 -27083.186 -275662.56 750517.59
 -102241.22 -245699.29 754439.26
 -177468.27 -205965.86 752384.93
 -241114.95 -160992.33 745617.23
 -287150.51 -116344.01 737569.43
 -313445.12 -77205.932 731977.73
 -320454.56 -47745.220 731456.95
 -311118.15 -31091.668 736368.66
 -293625.30 -28331.137 743627.28
 220809.74 -32449.560 768238.30
 243156.67 -26970.699 761674.09
 262092.41 -9430.2320 755790.08
 268398.33 18573.077 753403.86
 258672.80 54141.706 755087.45
 232141.56 94065.611 759777.57
 189942.16 134727.54 765356.43
 135849.97 172106.90 769365.97
 78050.168 202098.89 770106.62
 32449.558 220809.74 768238.30
 202098.89 -78050.170 770106.62
 221957.62 -65235.089 765819.30
 238026.20 -39544.539 762744.88
 241811.43 -2538.4596 762575.10
 230746.98 42802.669 764803.09
 204672.11 92580.972 767813.84
 165140.72 142217.17 769742.05
 116065.54 186862.17 769162.74
 65235.087 221957.62 765819.30
 26970.697 243156.67 761674.09
 172106.90 -135849.98 769365.97
 186862.17 -116065.54 769162.74
 197259.01 -81027.385 771053.47
 196597.92 -33378.099 774748.45
 183385.20 23405.236 778345.72
 158148.91 84558.476 779640.17
 122779.54 144421.56 777217.86
 81027.384 197259.01 771053.47
 39544.537 238026.20 762744.88
 9430.2295 262092.41 755790.08
 134727.54 -189942.16 765356.43
 142217.17 -165140.72 769742.05
 144421.56 -122779.54 777217.86
 137461.18 -66517.646 785289.65
 121213.71 -509.17206 790763.54
 96884.888 69653.234 791051.04
 66517.644 137461.18 785289.65
 33378.096 196597.92 774748.45
 2538.4562 241811.44 762575.10
 -18573.079 268398.33 753403.86
 94065.611 -232141.56 759777.57
 92580.971 -204672.11 767813.84
 84558.476 -158148.91 779640.17
 69653.232 -96884.891 791051.04
 49381.222 -25639.493 798062.72
 25639.490 49381.221 798062.72
 509.16930 121213.71 790763.54
 -23405.239 183385.20 778345.72
 -42802.670 230746.98 764803.09
 -54141.709 258672.81 755087.45
 54141.706 -258672.81 755087.45
 42802.669 -230746.98 764803.09
 23405.234 -183385.20 778345.72
 -509.17023 -121213.71 790763.54
 -25639.497 -49381.224 798062.72
 -49381.223 25639.492 798062.72
 -69653.239 96884.889 791051.04
 -84558.478 158148.91 779640.17
 -92580.976 204672.11 767813.84
 -94065.614 232141.56 759777.57
 18573.078 -268398.33 753403.86
 -2538.4594 -241811.44 762575.10
 -33378.097 -196597.92 774748.45
 -66517.650 -137461.18 785289.64
 -96884.888 -69653.236 791051.04
 -121213.72 509.16992 790763.54
 -137461.18 66517.644 785289.64
 -144421.57 122779.54 777217.86
 -142217.17 165140.72 769742.05
 -134727.54 189942.16 765356.43
 -9430.2307 -262092.41 755790.08
 -39544.538 -238026.20 762744.88
 -81027.386 -197259.01 771053.47
 -122779.54 -144421.56 777217.86
 -158148.91 -84558.478 779640.16
 -183385.20 -23405.238 778345.72
 -196597.93 33378.097 774748.45
 -197259.01 81027.383 771053.47
 -186862.17 116065.54 769162.74
 -172106.91 135849.97 769365.97
 -26970.697 -243156.67 761674.09
 -65235.087 -221957.62 765819.30
 -116065.54 -186862.17 769162.74
 -165140.72 -142217.17 769742.05
 -204672.11 -92580.974 767813.84
 -230746.98 -42802.670 764803.09
 -241811.44 2538.4565 762575.10
 -238026.20 39544.538 762744.88
 -221957.62 65235.087 765819.30
 -202098.89 78050.168 770106.62
 -32449.558 -220809.74 768238.30
 -78050.168 -202098.89 770106.62
 -135849.97 -172106.90 769365.97
 -189942.16 -134727.54 765356.43
 -232141.56 -94065.613 759777.57
 -258672.81 -54141.708 755087.45
 -268398.34 -18573.079 753403.86
 -262092.41 9430.2293 755790.07
 -243156.67 26970.696 761674.09
 -220809.74 32449.557 768238.30
 153478.20 -91970.752 779734.46
 182074.33 -81668.928 774712.28
 211865.04 -60331.528 769073.02
 232183.93 -30657.209 764951.47
 238736.32 4295.4565 763535.54
 230156.76 41660.187 765043.98
 206795.93 78571.199 768805.57
 170942.97 111899.83 773470.70
 128381.42 138118.00 777458.44
 91970.749 153478.20 779734.46
 138118.00 -128381.42 777458.44
 162699.24 -112371.63 775178.41
 188453.79 -83991.382 772936.36
 205648.58 -46236.000 771732.40
 210604.64 -2373.3434 771777.20
 202277.68 44144.275 772745.12
 181144.10 89694.932 774042.40
 149405.34 130505.63 775013.76
 112371.63 162699.24 775178.41
 81668.926 182074.34 774712.28
 111899.83 -170942.98 773470.70
 130505.62 -149405.34 775013.76
 149680.86 -113093.87 777692.37
 161835.50 -65996.644 780675.17
 164258.04 -11889.050 782865.22
 156338.12 45072.475 783279.56
 138645.29 100426.57 781467.84
 113093.87 149680.86 777692.37
 83991.380 188453.79 772936.36
 60331.526 211865.05 769073.02
 78571.198 -206795.93 768805.57
 89694.931 -181144.10 774042.40
 100426.57 -138645.28 781467.84
 106090.08 -84145.619 788456.98
 105225.27 -21959.029 792745.51
 97709.555 43153.902 792837.05
 84145.615 106090.08 788456.98
 65996.643 161835.50 780675.17
 46235.998 205648.58 771732.40
 30657.207 232183.94 764951.47
 41660.187 -230156.77 765043.98
 44144.276 -202277.68 772745.12
 45072.473 -156338.13 783279.56
 43153.902 -97709.554 792837.05
 38362.282 -31095.563 798474.42
 31095.560 38362.283 798474.42
 21959.028 105225.27 792745.51
 11889.047 164258.04 782865.22
 2373.3409 210604.65 771777.20
 -4295.4583 238736.32 763535.54
 4295.4573 -238736.32 763535.54
 -2373.3440 -210604.65 771777.20
 -11889.048 -164258.04 782865.22
 -21959.031 -105225.27 792745.51
 -31095.561 -38362.284 798474.42
 -38362.285 31095.561 798474.42
 -43153.904 97709.554 792837.05
 -45072.477 156338.12 783279.56
 -44144.277 202277.68 772745.12
 -41660.189 230156.76 765043.98
 -30657.208 -232183.94 764951.47
 -46235.998 -205648.58 771732.40
 -65996.645 -161835.50 780675.17
 -84145.616 -106090.08 788456.98
 -97709.558 -43153.904 792837.05
 -105225.27 21959.028 792745.51
 -106090.08 84145.617 788456.98
 -100426.57 138645.28 781467.84
 -89694.934 181144.10 774042.40
 -78571.201 206795.93 768805.57
 -60331.526 -211865.04 769073.02
 -83991.381 -188453.79 772936.36
 -113093.87 -149680.86 777692.37
 -138645.29 -100426.57 781467.84
 -156338.12 -45072.475 783279.56
 -164258.05 11889.047 782865.22
 -161835.50 65996.642 780675.17
 -149680.86 113093.87 777692.37
 -130505.63 149405.34 775013.76
 -111899.83 170942.97 773470.70
 -81668.925 -182074.33 774712.28
 -112371.63 -162699.24 775178.41
 -149405.34 -130505.62 775013.76
 -181144.10 -89694.932 774042.40
 -202277.68 -44144.277 772745.12
 -210604.64 2373.3422 771777.20
 -205648.58 46235.998 771732.40
 -188453.79 83991.380 772936.36
 -162699.24 112371.63 775178.41
 -138118.00 128381.42 777458.44
 -91970.749 -153478.20 779734.46
 -128381.42 -138118.00 777458.44
 -170942.97 -111899.83 773470.70
 -206795.93 -78571.200 768805.57
 -230156.76 -41660.188 765043.98
 -238736.32 -4295.4582 763535.54
 -232183.94 30657.208 764951.47
 -211865.05 60331.526 769073.02
 -182074.34 81668.926 774712.28
 -153478.20 91970.749 779734.46
 91970.747 -153478.19 779734.46
 128381.41 -138117.99 777458.44
 170942.97 -111899.82 773470.71
 206795.92 -78571.194 768805.58
 230156.75 -41660.184 765043.98
 238736.31 -4295.4551 763535.54
 232183.92 30657.209 764951.48
 211865.03 60331.528 769073.02
 182074.32 81668.927 774712.29
 153478.19 91970.751 779734.46
 81668.924 -182074.33 774712.29
 112371.63 -162699.23 775178.42
 149405.33 -130505.62 775013.76
 181144.09 -89694.928 774042.40
 202277.67 -44144.274 772745.12
 210604.63 2373.3432 771777.21
 205648.57 46235.999 771732.40
 188453.78 83991.378 772936.36
 162699.23 112371.63 775178.42
 138117.99 128381.42 777458.44
 60331.525 -211865.04 769073.02
 83991.378 -188453.78 772936.36
 113093.86 -149680.86 777692.37
 138645.28 -100426.57 781467.84
 156338.11 -45072.473 783279.56
 164258.04 11889.047 782865.22
 161835.49 65996.640 780675.17
 149680.86 113093.87 777692.37
 130505.61 149405.34 775013.76
 111899.82 170942.97 773470.70
 30657.208 -232183.93 764951.48
 46235.997 -205648.57 771732.40
 65996.641 -161835.49 780675.17
 84145.611 -106090.07 788456.98
 97709.552 -43153.904 792837.05
 105225.26 21959.027 792745.51
 106090.07 84145.614 788456.98
 100426.56 138645.28 781467.84
 89694.926 181144.10 774042.40
 78571.192 206795.92 768805.58
 -4295.4551 -238736.31 763535.54
 2373.3428 -210604.64 771777.20
 11889.047 -164258.04 782865.22
 21959.028 -105225.27 792745.51
 31095.557 -38362.282 798474.42
 38362.282 31095.559 798474.42
 43153.899 97709.549 792837.05
 45072.472 156338.12 783279.56
 44144.271 202277.67 772745.12
 41660.183 230156.76 765043.98
 -41660.184 -230156.76 765043.98
 -44144.272 -202277.67 772745.12
 -45072.473 -156338.12 783279.56
 -43153.901 -97709.550 792837.05
 -38362.282 -31095.561 798474.42
 -31095.561 38362.280 798474.42
 -21959.028 105225.27 792745.51
 -11889.049 164258.03 782865.22
 -2373.3445 210604.64 771777.21
 4295.4537 238736.31 763535.54
 -78571.192 -206795.92 768805.58
 -89694.927 -181144.10 774042.40
 -100426.56 -138645.28 781467.84
 -106090.07 -84145.615 788456.98
 -105225.27 -21959.028 792745.51
 -97709.551 43153.901 792837.05
 -84145.614 106090.07 788456.98
 -65996.641 161835.49 780675.17
 -46236.000 205648.57 771732.40
 -30657.210 232183.93 764951.48
 -111899.82 -170942.97 773470.71
 -130505.61 -149405.33 775013.76
 -149680.86 -113093.87 777692.37
 -161835.49 -65996.640 780675.17
 -164258.04 -11889.050 782865.22
 -156338.12 45072.472 783279.56
 -138645.28 100426.57 781467.84
 -113093.87 149680.86 777692.37
 -83991.379 188453.78 772936.36
 -60331.528 211865.04 769073.02
 -138117.99 -128381.42 777458.45
 -162699.23 -112371.63 775178.42
 -188453.78 -83991.378 772936.36
 -205648.57 -46236.001 771732.40
 -210604.63 -2373.3430 771777.21
 -202277.67 44144.271 772745.12
 -181144.10 89694.926 774042.40
 -149405.34 130505.62 775013.76
 -112371.63 162699.23 775178.42
 -81668.926 182074.32 774712.29
 -153478.19 -91970.749 779734.46
 -182074.32 -81668.926 774712.29
 -211865.03 -60331.528 769073.02
 -232183.92 -30657.209 764951.48
 -238736.31 4295.4532 763535.54
 -230156.75 41660.183 765043.98
 -206795.92 78571.192 768805.58
 -170942.97 111899.82 773470.70
 -128381.42 138117.99 777458.44
 -91970.750 153478.19 779734.46
 32449.544 -220809.73 768238.30
 78050.149 -202098.88 770106.63
 135849.95 -172106.89 769365.98
 189942.13 -134727.53 765356.44
 232141.53 -94065.609 759777.58
 258672.78 -54141.709 755087.46
 268398.31 -18573.082 753403.87
 262092.39 9430.2220 755790.08
 243156.65 26970.688 761674.10
 220809.72 32449.548 768238.30
 26970.684 -243156.65 761674.09
 65235.070 -221957.60 765819.31
 116065.51 -186862.16 769162.75
 165140.70 -142217.16 769742.05
 204672.08 -92580.970 767813.85
 230746.95 -42802.672 764803.10
 241811.41 2538.4492 762575.11
 238026.18 39544.529 762744.89
 221957.60 65235.072 765819.31
 202098.87 78050.154 770106.63
 9430.2203 -262092.39 755790.08
 39544.524 -238026.18 762744.89
 81027.368 -197258.99 771053.47
 122779.52 -144421.55 777217.86
 158148.89 -84558.475 779640.17
 183385.18 -23405.241 778345.73
 196597.90 33378.088 774748.45
 197258.99 81027.367 771053.47
 186862.16 116065.52 769162.75
 172106.89 135849.95 769365.98
 -18573.084 -268398.31 753403.87
 2538.4495 -241811.41 762575.11
 33378.085 -196597.90 774748.45
 66517.634 -137461.17 785289.65
 96884.871 -69653.231 791051.04
 121213.70 509.16493 790763.54
 137461.16 66517.631 785289.65
 144421.55 122779.52 777217.86
 142217.16 165140.70 769742.05
 134727.53 189942.14 765356.44
 -54141.708 -258672.78 755087.46
 -42802.672 -230746.95 764803.10
 -23405.240 -183385.18 778345.73
 509.16334 -121213.70 790763.54
 25639.490 -49381.220 798062.72
 49381.214 25639.486 798062.72
 69653.232 96884.876 791051.04
 84558.470 158148.88 779640.17
 92580.969 204672.09 767813.85
 94065.606 232141.54 759777.58
 -94065.607 -232141.54 759777.58
 -92580.969 -204672.09 767813.85
 -84558.472 -158148.89 779640.17
 -69653.229 -96884.878 791051.04
 -49381.219 -25639.489 798062.72
 -25639.487 49381.218 798062.72
 -509.16801 121213.70 790763.54
 23405.241 183385.18 778345.73
 42802.670 230746.95 764803.10
 54141.707 258672.78 755087.46
 -134727.53 -189942.14 765356.44
 -142217.16 -165140.70 769742.05
 -144421.55 -122779.52 777217.86
 -137461.17 -66517.633 785289.65
 -121213.70 -509.16788 790763.54
 -96884.876 69653.229 791051.04
 -66517.632 137461.17 785289.65
 -33378.089 196597.90 774748.45
 -2538.4498 241811.41 762575.11
 18573.082 268398.31 753403.87
 -172106.89 -135849.95 769365.98
 -186862.15 -116065.52 769162.75
 -197258.99 -81027.368 771053.47
 -196597.90 -33378.090 774748.45
 -183385.18 23405.240 778345.73
 -158148.88 84558.471 779640.17
 -122779.52 144421.55 777217.86
 -81027.367 197258.99 771053.47
 -39544.528 238026.18 762744.89
 -9430.2218 262092.39 755790.08
 -202098.87 -78050.153 770106.63
 -221957.59 -65235.072 765819.31
 -238026.17 -39544.529 762744.89
 -241811.41 -2538.4498 762575.11
 -230746.95 42802.668 764803.10
 -204672.08 92580.969 767813.85
 -165140.70 142217.16 769742.05
 -116065.52 186862.16 769162.75
 -65235.071 221957.60 765819.31
 -26970.687 243156.65 761674.09
 -220809.72 -32449.547 768238.31
 -243156.64 -26970.688 761674.10
 -262092.39 -9430.2225 755790.08
 -268398.30 18573.081 753403.87
 -258672.78 54141.708 755087.46
 -232141.53 94065.606 759777.58
 -189942.13 134727.53 765356.44
 -135849.95 172106.89 769365.98
 -78050.152 202098.88 770106.63
 -32449.546 220809.72 768238.30
 -28331.161 -293625.28 743627.29
 27083.152 -275662.54 750517.60
 102241.18 -245699.27 754439.27
 177468.22 -205965.85 752384.94
 241114.91 -160992.33 745617.24
 287150.46 -116344.02 737569.44
 313445.08 -77205.943 731977.75
 320454.53 -47745.235 731456.96
 311118.12 -31091.687 736368.67
 293625.27 -28331.156 743627.29
 -31091.691 -311118.12 736368.67
 15864.734 -291935.96 744662.14
 83325.241 -257537.11 752815.74
 153465.39 -210425.67 756418.81
 214945.99 -155590.94 754711.65
 261277.72 -99711.471 749527.57
 289493.06 -49384.415 744147.13
 299083.33 -9798.1692 741925.30
 291935.96 15864.739 744662.14
 275662.54 27083.156 750517.60
 -47745.239 -320454.53 731456.96
 -9798.1706 -299083.34 741925.30
 47409.300 -259316.05 755319.50
 109869.38 -203509.05 765841.23
 167530.64 -137062.86 770160.54
 213813.54 -67879.306 767903.75
 244949.25 -4222.0262 761565.52
 259316.05 47409.305 755319.50
 257537.11 83325.243 752815.74
 245699.27 102241.18 754439.27
 -77205.944 -313445.08 731977.75
 -49384.418 -289493.07 744147.13
 -4222.0250 -244949.25 761565.52
 48590.733 -181962.47 777514.37
 100982.76 -106048.48 786483.44
 146862.87 -25974.905 785974.94
 181962.47 48590.737 777514.37
 203509.04 109869.38 765841.23
 210425.67 153465.39 756418.81
 205965.85 177468.22 752384.94
 -116344.02 -287150.46 737569.44
 -99711.470 -261277.72 749527.57
 -67879.307 -213813.54 767903.75
 -25974.902 -146862.88 785974.94
 20301.319 -65803.187 797030.61
 65803.187 20301.321 797030.61
 106048.48 100982.76 786483.44
 137062.86 167530.64 770160.54
 155590.94 214945.99 754711.65
 160992.33 241114.91 745617.24
 -160992.33 -241114.91 745617.24
 -155590.94 -214946.00 754711.65
 -137062.86 -167530.64 770160.54
 -106048.48 -100982.76 786483.44
 -65803.183 -20301.325 797030.61
 -20301.324 65803.182 797030.61
 25974.904 146862.87 785974.94
 67879.303 213813.53 767903.75
 99711.470 261277.72 749527.57
 116344.02 287150.46 737569.44
 -205965.85 -177468.22 752384.94
 -210425.67 -153465.39 756418.81
 -203509.04 -109869.39 765841.23
 -181962.47 -48590.740 777514.37
 -146862.87 25974.901 785974.94
 -100982.76 106048.48 786483.44
 -48590.738 181962.47 777514.37
 4222.0258 244949.25 761565.52
 49384.415 289493.06 744147.13
 77205.943 313445.08 731977.75
 -245699.26 -102241.18 754439.27
 -257537.11 -83325.245 752815.74
 -259316.05 -47409.306 755319.50
 -244949.25 4222.0236 761565.52
 -213813.53 67879.302 767903.75
 -167530.64 137062.86 770160.54
 -109869.38 203509.04 765841.23
 -47409.304 259316.05 755319.50
 9798.1698 299083.34 741925.30
 47745.236 320454.53 731456.96
 -275662.53 -27083.157 750517.60
 -291935.95 -15864.739 744662.14
 -299083.33 9798.1677 741925.30
 -289493.06 49384.412 744147.13
 -261277.72 99711.469 749527.57
 -214945.99 155590.94 754711.65
 -153465.39 210425.67 756418.81
 -83325.241 257537.11 752815.74
 -15864.737 291935.96 744662.14
 31091.689 311118.12 736368.67
 -293625.27 28331.156 743627.29
 -311118.12 31091.687 736368.67
 -320454.52 47745.234 731456.96
 -313445.08 77205.941 731977.75
 -287150.46 116344.01 737569.44
 -241114.91 160992.33 745617.24
 -177468.22 205965.85 752384.94
 -102241.18 245699.27 754439.27
 -27083.154 275662.54 750517.60
 28331.159 293625.28 743627.29
 -88132.904 -364515.34 706654.91
 -23134.593 -353179.45 717446.21
 69290.887 -328756.66 726028.81
 165814.34 -290147.47 726856.28
 251136.99 -241962.18 719989.25
 316508.04 -191652.85 709289.68
 358644.78 -146585.71 699918.96
 378036.49 -112330.78 696038.94
 377667.95 -92418.766 699160.70
 364515.33 -88132.899 706654.91
 -92418.770 -377667.96 699160.70
 -35765.218 -366125.77 710403.24
 49909.239 -337857.13 723437.37
 143059.03 -291622.14 731088.67
 228470.01 -232307.57 730639.89
 296356.23 -168810.19 723654.69
 341978.26 -110630.68 714710.93
 364579.51 -65006.693 709123.34
 366125.77 -35765.214 710403.25
 353179.44 -23134.587 717446.22
 -112330.79 -378036.50 696038.94
 -65006.697 -364579.51 709123.34
 10610.100 -330893.74 728283.43
 97283.901 -275023.14 744914.84
 181156.40 -201961.98 752591.34
 251694.26 -122305.11 749460.78
 302413.48 -48300.708 739062.33
 330893.74 10610.102 728283.43
 337857.12 49909.244 723437.37
 328756.65 69290.892 726028.81
 -146585.71 -358644.78 699918.96
 -110630.69 -341978.27 714710.93
 -48300.710 -302413.49 739062.33
 28336.233 -237513.55 763403.15
 107987.35 -152246.96 777920.04
 180355.48 -58685.525 777192.32
 237513.55 28336.232 763403.15
 275023.14 97283.906 744914.84
 291622.13 143059.03 731088.67
 290147.47 165814.34 726856.28
 -191652.85 -316508.05 709289.67
 -168810.19 -296356.23 723654.68
 -122305.11 -251694.27 749460.78
 -58685.526 -180355.49 777192.32
 14188.804 -87408.350 795083.93
 87408.343 14188.800 795083.93
 152246.96 107987.36 777920.04
 201961.97 181156.40 752591.34
 232307.57 228470.02 730639.89
 241962.18 251136.99 719989.25
 -241962.18 -251136.99 719989.25
 -232307.57 -228470.02 730639.89
 -201961.97 -181156.41 752591.34
 -152246.95 -107987.36 777920.04
 -87408.348 -14188.807 795083.93
 -14188.802 87408.344 795083.93
 58685.522 180355.48 777192.33
 122305.11 251694.27 749460.78
 168810.19 296356.23 723654.69
 191652.85 316508.05 709289.67
 -290147.47 -165814.34 726856.28
 -291622.13 -143059.04 731088.67
 -275023.13 -97283.908 744914.84
 -237513.55 -28336.238 763403.15
 -180355.48 58685.520 777192.33
 -107987.36 152246.95 777920.04
 -28336.233 237513.55 763403.15
 48300.707 302413.48 739062.33
 110630.68 341978.27 714710.93
 146585.71 358644.78 699918.96
 -328756.65 -69290.893 726028.81
 -337857.12 -49909.245 723437.37
 -330893.74 -10610.105 728283.43
 -302413.48 48300.703 739062.33
 -251694.27 122305.11 749460.78
 -181156.40 201961.97 752591.34
 -97283.904 275023.13 744914.84
 -10610.101 330893.74 728283.43
 65006.695 364579.51 709123.34
 112330.78 378036.49 696038.94
 -353179.44 23134.586 717446.22
 -366125.76 35765.213 710403.25
 -364579.51 65006.691 709123.34
 -341978.26 110630.68 714710.93
 -296356.23 168810.19 723654.69
 -228470.01 232307.57 730639.89
 -143059.03 291622.13 731088.67
 -49909.241 337857.12 723437.37
 35765.216 366125.77 710403.25
 92418.768 377667.95 699160.70
 -364515.33 88132.898 706654.91
 -377667.95 92418.765 699160.70
 -378036.49 112330.78 696038.94
 -358644.78 146585.71 699918.96
 -316508.04 191652.85 709289.68
 -251136.99 241962.18 719989.25
 -165814.34 290147.47 726856.28
 -69290.889 328756.65 726028.81
 23134.590 353179.44 717446.22
 88132.902 364515.33 706654.91
 -135241.71 -419098.65 667881.73
 -60467.654 -417909.42 679481.70
 44486.785 -401290.41 690642.41
 155746.32 -366154.20 694027.51
 256395.46 -316946.26 688335.99
 335683.78 -262410.29 677094.71
 389337.07 -211760.27 666013.68
 418154.67 -171808.37 660021.64