# OOMMF OVF 2.0
#
# Segment count: 1
#
# Begin: Segment
# Begin: Header
#
# Title: Oxs_MinDriver::Magnetization
# Desc: Oxs vector field output
# Desc:  MIF source file: /home/ryan/Git/joommf/tools/omfvis/cube_example.mif
# Desc:  Iteration: 3668, State id: 7662
# Desc:  Stage: 16, Stage iteration: 105
# Desc:  Stage simulation time: 0 s
# Desc:  Total simulation time: -2 s
# meshunit: m
# meshtype: rectangular
# xbase: 2.5000000000000001e-09
# ybase: 2.5000000000000001e-09
# zbase: 2.5000000000000001e-09
# xnodes: 10
# ynodes: 10
# znodes: 10
# xstepsize: 5.0000000000000001e-09
# ystepsize: 5.0000000000000001e-09
# zstepsize: 5.0000000000000001e-09
# xmin: 0
# ymin: 0
# zmin: 0
# xmax: 4.9999999999999998e-08
# ymax: 4.9999999999999998e-08
# zmax: 4.9999999999999998e-08
# valuedim: 3
# valuelabels: Magnetization_x Magnetization_y Magnetization_z
# valueunits: A/m A/m A/m
#
# End: Header
#
# Begin: Data Text
 540695.81 -29706.091 588868.06
 573187.21 -8974.4119 558010.65
 595299.91 39297.298 532985.68
 594723.07 111539.54 523319.60
 564769.35 201701.82 529482.73
 500744.40 300807.24 546598.62
 401563.02 396252.80 567213.24
 273999.14 473758.23 583504.59
 137569.07 522277.89 590169.94
 29706.091 540695.81 588868.06
 522277.89 -137569.07 590169.94
 555894.52 -105953.43 565468.97
 579555.03 -41418.853 549909.49
 579204.34 53331.143 549252.32
 545877.77 171322.27 559165.57
 474402.76 298647.51 570746.61
 367221.24 415678.26 576506.84
 236892.48 504436.84 573955.94
 105953.43 555894.52 565468.97
 8974.4119 573187.21 558010.65
 473758.23 -273999.14 583504.59
 504436.84 -236892.48 573955.94
 526621.53 -158771.69 580914.20
 524324.56 -39106.657 602954.75
 484848.05 115147.89 625830.12
 402690.95 281200.78 631479.31
 287029.97 426029.64 613280.15
 158771.69 526621.53 580914.20
 41418.853 579555.03 549909.49
 -39297.298 595299.91 532985.68
 396252.80 -401563.02 567213.24
 415678.26 -367221.24 576506.84
 426029.64 -287029.97 613280.15
 412439.71 -152402.77 668331.41
 360867.28 33950.822 713177.50
 268303.13 239382.30 714639.45
 152402.77 412439.71 668331.41
 39106.657 524324.56 602954.75
 -53331.143 579204.34 549252.33
 -111539.54 594723.07 523319.60
 300807.24 -500744.40 546598.62
 298647.51 -474402.76 570746.61
 281200.78 -402690.95 631479.31
 239382.30 -268303.13 714639.45
 165539.38 -66420.922 779862.15
 66420.922 165539.38 779862.15
 -33950.822 360867.28 713177.50
 -115147.89 484848.05 625830.12
 -171322.27 545877.77 559165.57
 -201701.82 564769.35 529482.73
 201701.82 -564769.35 529482.73
 171322.27 -545877.77 559165.57
 115147.89 -484848.05 625830.12
 33950.822 -360867.28 713177.50
 -66420.923 -165539.38 779862.15
 -165539.38 66420.923 779862.15
 -239382.30 268303.13 714639.45
 -281200.78 402690.95 631479.31
 -298647.51 474402.75 570746.61
 -300807.24 500744.40 546598.62
 111539.54 -594723.07 523319.60
 53331.142 -579204.34 549252.32
 -39106.657 -524324.56 602954.75
 -152402.77 -412439.71 668331.41
 -268303.13 -239382.30 714639.45
 -360867.28 -33950.822 713177.50
 -412439.71 152402.77 668331.41
 -426029.64 287029.97 613280.15
 -415678.26 367221.24 576506.84
 -396252.80 401563.02 567213.24
 39297.298 -595299.91 532985.68
 -41418.853 -579555.03 549909.49
 -158771.69 -526621.53 580914.20
 -287029.97 -426029.64 613280.15
 -402690.95 -281200.78 631479.31
 -484848.05 -115147.89 625830.12
 -524324.56 39106.657 602954.75
 -526621.53 158771.69 580914.20
 -504436.84 236892.48 573955.94
 -473758.23 273999.14 583504.59
 -8974.4119 -573187.21 558010.65
 -105953.43 -555894.52 565468.97
 -236892.48 -504436.84 573955.94
 -367221.24 -415678.26 576506.84
 -474402.75 -298647.51 570746.61
 -545877.77 -171322.27 559165.57
 -579204.34 -53331.142 549252.32
 -579555.03 41418.853 549909.49
 -555894.52 105953.43 565468.97
 -522277.89 137569.07 590169.94
 -29706.091 -540695.81 588868.06
 -137569.07 -522277.89 590169.94
 -273999.14 -473758.23 583504.59
 -401563.02 -396252.80 567213.24
 -500744.40 -300807.24 546598.62
 -564769.35 -201701.82 529482.73
 -594723.07 -111539.54 523319.60
 -595299.91 -39297.298 532985.68
 -573187.21 8974.4118 558010.65
 -540695.81 29706.091 588868.06
 492672.90 -70445.324 626347.24
 530977.99 -52005.941 596118.91
 561511.32 -6922.6467 569786.90
 569995.70 60684.006 558052.29
 550219.49 145204.54 562293.65
 497994.37 239272.56 578576.06
 411715.06 332435.10 599981.34
 296558.54 411934.04 618355.38
 170393.10 466524.86 627152.89
 70445.324 492672.90 626347.24
 466524.86 -170393.10 627152.89
 504815.74 -138406.65 604983.19
 535376.42 -77026.464 589439.58
 542920.85 11349.163 587459.06
 519962.12 121014.23 595814.53
 462231.50 240855.99 606902.32
 370974.31 354641.00 613683.81
 256157.28 446006.41 612749.32
 138406.65 504815.74 604983.19
 52005.942 530977.99 596118.91
 411934.04 -296558.54 618355.38
 446006.41 -256157.28 612749.32
 472601.84 -180010.36 619874.00
 476299.73 -68147.308 639135.75
 448025.36 73600.256 658677.67
 383859.19 227569.34 663976.14
 289382.71 367638.00 648922.15
 180010.36 472601.84 619874.00
 77026.464 535376.42 589439.58
 6922.6466 561511.32 569786.90
 332435.10 -411715.06 599981.34
 354641.00 -370974.31 613683.81
 367638.00 -289382.71 648922.15
 359074.39 -161606.92 696382.64
 320878.85 7970.6405 732784.58
 251703.67 194240.87 734108.81
 161606.92 359074.40 696382.64
 68147.307 476299.73 639135.75
 -11349.163 542920.85 587459.06
 -60684.006 569995.70 558052.29
 239272.56 -497994.37 578576.06
 240855.99 -462231.50 606902.32
 227569.34 -383859.19 663976.14
 194240.87 -251703.68 734108.81
 139121.52 -67415.709 784920.59
 67415.709 139121.52 784920.58
 -7970.6411 320878.85 732784.58
 -73600.255 448025.36 658677.67
 -121014.23 519962.12 595814.53
 -145204.54 550219.49 562293.65
 145204.54 -550219.49 562293.65
 121014.23 -519962.12 595814.53
 73600.257 -448025.36 658677.67
 7970.6395 -320878.85 732784.58
 -67415.708 -139121.52 784920.59
 -139121.52 67415.708 784920.58
 -194240.87 251703.68 734108.81
 -227569.34 383859.19 663976.14
 -240855.99 462231.50 606902.32
 -239272.56 497994.37 578576.06
 60684.006 -569995.70 558052.29
 11349.163 -542920.85 587459.06
 -68147.308 -476299.73 639135.75
 -161606.92 -359074.40 696382.64
 -251703.68 -194240.87 734108.81
 -320878.85 -7970.6394 732784.58
 -359074.39 161606.92 696382.64
 -367638.00 289382.71 648922.15
 -354641.00 370974.31 613683.81
 -332435.10 411715.06 599981.34
 -6922.6468 -561511.32 569786.90
 -77026.464 -535376.42 589439.58
 -180010.36 -472601.84 619874.00
 -289382.71 -367638.00 648922.15
 -383859.19 -227569.34 663976.14
 -448025.36 -73600.257 658677.67
 -476299.73 68147.308 639135.75
 -472601.84 180010.36 619874.00
 -446006.41 256157.29 612749.32
 -411934.04 296558.54 618355.38
 -52005.941 -530977.99 596118.91
 -138406.65 -504815.74 604983.19
 -256157.28 -446006.41 612749.32
 -370974.31 -354641.00 613683.81
 -462231.50 -240855.99 606902.32
 -519962.12 -121014.23 595814.53
 -542920.85 -11349.164 587459.06
 -535376.42 77026.465 589439.58
 -504815.74 138406.64 604983.19
 -466524.86 170393.10 627152.89
 -70445.324 -492672.90 626347.24
 -170393.10 -466524.86 627152.89
 -296558.54 -411934.04 618355.38
 -411715.06 -332435.10 599981.34
 -497994.37 -239272.56 578576.06
 -550219.49 -145204.54 562293.65
 -569995.70 -60684.006 558052.29
 -561511.32 6922.6463 569786.90
 -530977.99 52005.942 596118.91
 -492672.90 70445.323 626347.24
 429248.86 -124039.15 663596.04
 473245.35 -104111.02 636553.01
 513171.82 -59617.812 610819.45
 532650.22 4630.6843 596877.12
 525529.20 83280.453 597397.21
 488496.60 170517.18 610159.78
 420092.75 258577.12 629809.46
 323849.28 337406.85 649059.52
 214144.09 396562.25 660969.51
 124039.15 429248.86 663596.04
 396562.25 -214144.09 660969.51
 438555.45 -180927.00 644154.13
 476915.13 -120915.98 630817.95
 494816.44 -37811.375 627476.69
 485413.05 63125.349 632763.28
 445375.24 173444.13 641527.89
 375098.85 281127.24 648281.06
 281439.65 372958.07 649379.71
 180927.00 438555.45 644154.13
 104111.02 473245.35 636553.01
 337406.85 -323849.28 649059.52
 372958.07 -281439.65 649379.71
 404917.26 -206477.79 658338.01
 417700.44 -101741.18 674666.64
 404159.85 26947.053 689875.84
 361416.53 166538.36 694005.09
 292225.22 298304.78 682362.57
 206477.79 404917.26 658338.01
 120915.98 476915.13 630817.95
 59617.812 513171.82 610819.45
 258577.12 -420092.75 629809.46
 281127.24 -375098.85 648281.06
 298304.78 -292225.22 682362.57
 298866.98 -171556.19 721974.38
 277642.23 -19309.473 750027.96
 233638.84 146172.84 751030.22
 171556.19 298866.98 721974.38
 101741.18 417700.44 674666.64
 37811.374 494816.44 627476.69
 -4630.6841 532650.22 596877.12
 170517.18 -488496.60 610159.78
 173444.13 -445375.24 641527.89
 166538.36 -361416.53 694005.09
 146172.84 -233638.84 751030.22
 112463.45 -68274.958 789107.41
 68274.957 112463.45 789107.41
 19309.475 277642.23 750027.96
 -26947.055 404159.85 689875.84
 -63125.348 485413.05 632763.28
 -83280.453 525529.20 597397.21
 83280.453 -525529.20 597397.21
 63125.349 -485413.05 632763.28
 26947.054 -404159.85 689875.84
 -19309.473 -277642.23 750027.96
 -68274.959 -112463.45 789107.41
 -112463.45 68274.960 789107.41
 -146172.85 233638.84 751030.22
 -166538.36 361416.53 694005.09
 -173444.13 445375.24 641527.89
 -170517.18 488496.60 610159.78
 4630.6839 -532650.22 596877.12
 -37811.374 -494816.44 627476.69
 -101741.18 -417700.44 674666.64
 -171556.19 -298866.98 721974.38
 -233638.84 -146172.84 751030.22
 -277642.23 19309.472 750027.96
 -298866.98 171556.19 721974.38
 -298304.78 292225.22 682362.57
 -281127.24 375098.85 648281.06
 -258577.12 420092.75 629809.46
 -59617.811 -513171.82 610819.45
 -120915.98 -476915.13 630817.95
 -206477.79 -404917.26 658338.01
 -292225.22 -298304.78 682362.57
 -361416.53 -166538.36 694005.09
 -404159.85 -26947.052 689875.84
 -417700.44 101741.18 674666.64
 -404917.26 206477.80 658338.01
 -372958.07 281439.65 649379.71
 -337406.85 323849.28 649059.52
 -104111.02 -473245.35 636553.01
 -180927.00 -438555.45 644154.12
 -281439.65 -372958.07 649379.71
 -375098.85 -281127.24 648281.06
 -445375.24 -173444.13 641527.89
 -485413.05 -63125.350 632763.28
 -494816.44 37811.376 627476.69
 -476915.13 120915.98 630817.95
 -438555.45 180927.00 644154.13
 -396562.25 214144.09 660969.51
 -124039.15 -429248.86 663596.04
 -214144.09 -396562.25 660969.51
 -323849.28 -337406.85 649059.52
 -420092.75 -258577.12 629809.46
 -488496.60 -170517.18 610159.78
 -525529.20 -83280.452 597397.21
 -532650.22 -4630.6846 596877.12
 -513171.82 59617.812 610819.45
 -473245.35 104111.02 636553.01
 -429248.86 124039.15 663596.04
 361669.94 -180156.39 690462.55
 412356.81 -156285.36 667485.39
 462482.58 -109450.93 643529.61
 493760.22 -45729.306 627781.55
 499806.84 29265.741 623968.46
 478108.26 110594.66 631807.97
 427739.61 192571.56 648039.37
 351141.58 267711.94 667105.62
 259238.63 326955.52 682565.32
 180156.39 361669.94 690462.55
 326955.52 -259238.63 682565.32
 373338.48 -223869.71 671193.51
 420242.62 -162915.59 660949.81
 449432.61 -82001.940 656723.70
 453935.94 13139.312 658611.82
 430978.39 115524.43 664011.84
 380627.99 216311.90 669575.61
 307434.34 305435.49 672453.19
 223869.71 373338.48 671193.51
 156285.36 412356.81 667485.39
 267711.94 -351141.58 667105.62
 305435.49 -307434.34 672453.19
 343858.96 -232541.52 683875.32
 367028.98 -131965.82 698480.31
 368094.40 -12322.346 710179.32
 344416.26 115929.73 712697.51
 297178.24 239147.66 703202.31
 232541.52 343858.96 683875.32
 162915.59 420242.62 660949.81
 109450.93 462482.58 643529.61
 192571.56 -427739.61 648039.37
 216311.90 -380627.99 669575.61
 239147.66 -297178.25 703202.31
 250197.29 -181639.92 737840.26
 244699.63 -41638.904 760518.44
 221200.29 108485.88 761118.42
 181639.92 250197.29 737840.26
 131965.82 367028.99 698480.31
 82001.941 449432.61 656723.70
 45729.306 493760.21 627781.56
 110594.66 -478108.26 631807.97
 115524.43 -430978.39 664011.85
 115929.73 -344416.25 712697.51
 108485.88 -221200.29 761118.42
 92773.819 -69741.384 791535.95
 69741.385 92773.820 791535.95
 41638.903 244699.63 760518.44
 12322.348 368094.40 710179.32
 -13139.313 453935.94 658611.82
 -29265.740 499806.84 623968.46
 29265.740 -499806.84 623968.46
 13139.314 -453935.94 658611.81
 -12322.348 -368094.40 710179.32
 -41638.904 -244699.63 760518.44
 -69741.384 -92773.819 791535.95
 -92773.820 69741.383 791535.95
 -108485.88 221200.29 761118.42
 -115929.74 344416.25 712697.51
 -115524.43 430978.40 664011.84
 -110594.66 478108.26 631807.97
 -45729.305 -493760.22 627781.55
 -82001.942 -449432.61 656723.70
 -131965.82 -367028.99 698480.31
 -181639.92 -250197.29 737840.26
 -221200.29 -108485.89 761118.42
 -244699.63 41638.906 760518.44
 -250197.29 181639.92 737840.26
 -239147.66 297178.25 703202.31
 -216311.90 380627.99 669575.61
 -192571.56 427739.61 648039.37
 -109450.94 -462482.58 643529.61
 -162915.59 -420242.62 660949.81
 -232541.53 -343858.96 683875.32
 -297178.24 -239147.66 703202.31
 -344416.26 -115929.73 712697.51
 -368094.40 12322.345 710179.32
 -367028.99 131965.82 698480.31
 -343858.96 232541.52 683875.32
 -305435.49 307434.35 672453.19
 -267711.94 351141.58 667105.62
 -156285.36 -412356.81 667485.39
 -223869.71 -373338.48 671193.51
 -307434.34 -305435.49 672453.19
 -380627.99 -216311.90 669575.61
 -430978.39 -115524.43 664011.84
 -453935.94 -13139.311 658611.82
 -449432.61 82001.940 656723.70
 -420242.62 162915.59 660949.81
 -373338.48 223869.71 671193.51
 -326955.52 259238.63 682565.32
 -180156.39 -361669.94 690462.55
 -259238.63 -326955.52 682565.32
 -351141.58 -267711.94 667105.62
 -427739.61 -192571.56 648039.37
 -478108.26 -110594.66 631807.97
 -499806.84 -29265.741 623968.46
 -493760.21 45729.306 627781.56
 -462482.58 109450.93 643529.61
 -412356.81 156285.37 667485.39
 -361669.94 180156.39 690462.55
 296931.16 -237036.34 704021.06
 355684.17 -208411.69 685604.36
 417502.43 -157337.51 664030.59
 461739.55 -91373.299 646875.18
 481324.62 -16920.322 638780.33
 474218.82 61119.185 641389.86
 440114.23 138113.75 653623.79
 380991.96 208328.18 671896.19
 305340.97 264154.91 690643.96
 237036.34 296931.16 704021.06
 264154.91 -305340.97 690643.96
 316185.55 -267548.16 684430.18
 373031.77 -204033.36 677656.02
 414583.22 -122202.17 673191.94
 433008.43 -28860.973 672064.54
 425585.48 69177.421 673863.10
 392314.31 164657.62 677478.67
 336443.72 249725.06 681500.57
 267548.16 316185.55 684430.18
 208411.69 355684.17 685604.36
 208328.18 -380991.96 671896.19
 249725.06 -336443.72 681500.57
 296163.85 -260650.58 695951.33
 330716.91 -160920.67 710444.13
 345749.70 -45030.038 720020.45
 338242.97 77202.983 720854.63
 308521.21 194556.01 712013.07
 260650.58 296163.85 695951.33
 204033.36 373031.77 677656.02
 157337.51 417502.43 664030.59
 138113.75 -440114.23 653623.79
 164657.62 -392314.31 677478.67
 194556.01 -308521.21 712013.07
 216505.99 -195127.96 745016.94
 224966.76 -60838.680 765302.95
 217667.40 81429.071 765499.97
 195127.96 216505.99 745016.94
 160920.67 330716.90 710444.13
 122202.17 414583.22 673191.94
 91373.299 461739.56 646875.18
 61119.184 -474218.82 641389.86
 69177.424 -425585.48 673863.10
 77202.981 -338242.97 720854.63
 81429.072 -217667.40 765499.97
 80238.165 -73179.183 792594.88
 73179.183 80238.164 792594.88
 60838.681 224966.76 765302.95
 45030.037 345749.70 720020.45
 28860.974 433008.43 672064.54
 16920.322 481324.62 638780.33
 -16920.321 -481324.62 638780.33
 -28860.975 -433008.43 672064.54
 -45030.036 -345749.70 720020.45
 -60838.682 -224966.76 765302.95
 -73179.183 -80238.165 792594.88
 -80238.165 73179.185 792594.88
 -81429.071 217667.40 765499.97
 -77202.981 338242.97 720854.63
 -69177.423 425585.48 673863.10
 -61119.184 474218.82 641389.86
 -91373.300 -461739.55 646875.18
 -122202.17 -414583.22 673191.94
 -160920.68 -330716.90 710444.13
 -195127.96 -216505.99 745016.94
 -217667.40 -81429.070 765499.97
 -224966.76 60838.679 765302.96
 -216505.99 195127.96 745016.94
 -194556.01 308521.21 712013.08
 -164657.62 392314.31 677478.67
 -138113.75 440114.23 653623.79
 -157337.51 -417502.43 664030.59
 -204033.37 -373031.77 677656.02
 -260650.57 -296163.85 695951.33
 -308521.21 -194556.01 712013.07
 -338242.97 -77202.983 720854.63
 -345749.70 45030.039 720020.45
 -330716.90 160920.67 710444.13
 -296163.85 260650.58 695951.33
 -249725.06 336443.71 681500.57
 -208328.18 380991.96 671896.19
 -208411.69 -355684.17 685604.36
 -267548.16 -316185.56 684430.18
 -336443.72 -249725.06 681500.57
 -392314.31 -164657.62 677478.67
 -425585.48 -69177.422 673863.10
 -433008.43 28860.973 672064.54
 -414583.22 122202.17 673191.94
 -373031.77 204033.36 677656.02
 -316185.55 267548.16 684430.18
 -264154.91 305340.97 690643.96
 -237036.34 -296931.16 704021.06
 -305340.97 -264154.91 690643.96
 -380991.96 -208328.18 671896.19
 -440114.23 -138113.75 653623.79
 -474218.82 -61119.185 641389.86
 -481324.62 16920.322 638780.33
 -461739.56 91373.299 646875.18
 -417502.43 157337.51 664030.59
 -355684.17 208411.69 685604.36
 -296931.16 237036.34 704021.06
 237036.34 -296931.16 704021.06
 305340.97 -264154.91 690643.96
 380991.96 -208328.18 671896.19
 440114.23 -138113.75 653623.79
 474218.82 -61119.184 641389.86
 481324.62 16920.322 638780.33
 461739.55 91373.300 646875.18
 417502.43 157337.51 664030.59
 355684.17 208411.69 685604.36
 296931.16 237036.34 704021.06
 208411.69 -355684.17 685604.36
 267548.16 -316185.55 684430.18
 336443.71 -249725.06 681500.57
 392314.31 -164657.62 677478.67
 425585.48 -69177.423 673863.10
 433008.43 28860.975 672064.54
 414583.22 122202.17 673191.94
 373031.77 204033.36 677656.02
 316185.55 267548.16 684430.18
 264154.91 305340.97 690643.96
 157337.51 -417502.43 664030.59
 204033.36 -373031.77 677656.02
 260650.58 -296163.85 695951.33
 308521.21 -194556.01 712013.07
 338242.97 -77202.981 720854.62
 345749.70 45030.037 720020.45
 330716.90 160920.67 710444.13
 296163.85 260650.58 695951.33
 249725.06 336443.71 681500.57
 208328.18 380991.96 671896.19
 91373.299 -461739.55 646875.18
 122202.17 -414583.22 673191.94
 160920.67 -330716.91 710444.13
 195127.96 -216505.99 745016.94
 217667.40 -81429.071 765499.97
 224966.76 60838.680 765302.95
 216505.99 195127.96 745016.94
 194556.01 308521.21 712013.07
 164657.62 392314.31 677478.67
 138113.75 440114.23 653623.79
 16920.322 -481324.62 638780.33
 28860.973 -433008.43 672064.54
 45030.038 -345749.70 720020.45
 60838.680 -224966.76 765302.95
 73179.184 -80238.165 792594.88
 80238.165 73179.185 792594.88
 81429.071 217667.40 765499.97
 77202.982 338242.97 720854.63
 69177.423 425585.48 673863.10
 61119.184 474218.82 641389.86
 -61119.185 -474218.82 641389.86
 -69177.421 -425585.48 673863.10
 -77202.983 -338242.97 720854.62
 -81429.070 -217667.40 765499.97
 -80238.165 -73179.183 792594.88
 -73179.183 80238.163 792594.88
 -60838.681 224966.76 765302.95
 -45030.037 345749.70 720020.45
 -28860.974 433008.43 672064.54
 -16920.322 481324.62 638780.33
 -138113.75 -440114.23 653623.79
 -164657.62 -392314.31 677478.67
 -194556.01 -308521.21 712013.08
 -216505.99 -195127.96 745016.94
 -224966.76 -60838.682 765302.96
 -217667.40 81429.072 765499.97
 -195127.96 216505.99 745016.94
 -160920.67 330716.90 710444.13
 -122202.17 414583.22 673191.94
 -91373.299 461739.56 646875.18
 -208328.18 -380991.96 671896.19
 -249725.06 -336443.72 681500.57
 -296163.86 -260650.58 695951.33
 -330716.90 -160920.67 710444.13
 -345749.70 -45030.036 720020.45
 -338242.97 77202.981 720854.63
 -308521.21 194556.01 712013.07
 -260650.58 296163.85 695951.33
 -204033.36 373031.77 677656.02
 -157337.51 417502.43 664030.59
 -264154.91 -305340.97 690643.96
 -316185.55 -267548.16 684430.18
 -373031.77 -204033.36 677656.02
 -414583.22 -122202.17 673191.94
 -433008.43 -28860.974 672064.54
 -425585.48 69177.423 673863.10
 -392314.31 164657.62 677478.67
 -336443.72 249725.06 681500.57
 -267548.16 316185.55 684430.18
 -208411.69 355684.17 685604.36
 -296931.16 -237036.34 704021.06
 -355684.17 -208411.69 685604.36
 -417502.43 -157337.51 664030.59
 -461739.56 -91373.299 646875.18
 -481324.62 -16920.322 638780.33
 -474218.82 61119.184 641389.86
 -440114.23 138113.75 653623.79
 -380991.96 208328.18 671896.19
 -305340.97 264154.91 690643.96
 -237036.34 296931.16 704021.06
 180156.39 -361669.94 690462.55
 259238.63 -326955.52 682565.32
 351141.58 -267711.94 667105.62
 427739.61 -192571.56 648039.37
 478108.26 -110594.66 631807.97
 499806.84 -29265.740 623968.46
 493760.22 45729.305 627781.55
 462482.58 109450.94 643529.61
 412356.81 156285.36 667485.39
 361669.94 180156.39 690462.55
 156285.36 -412356.81 667485.39
 223869.71 -373338.48 671193.51
 307434.34 -305435.49 672453.19
 380627.99 -216311.90 669575.61
 430978.40 -115524.43 664011.84
 453935.94 -13139.313 658611.82
 449432.61 82001.942 656723.70
 420242.62 162915.59 660949.81
 373338.48 223869.71 671193.51
 326955.52 259238.63 682565.32
 109450.93 -462482.58 643529.61
 162915.59 -420242.62 660949.81
 232541.52 -343858.96 683875.32
 297178.25 -239147.66 703202.31
 344416.25 -115929.73 712697.51
 368094.40 12322.347 710179.32
 367028.99 131965.82 698480.31
 343858.96 232541.52 683875.32
 305435.49 307434.34 672453.19
 267711.94 351141.58 667105.62
 45729.306 -493760.22 627781.55
 82001.940 -449432.61 656723.70
 131965.82 -367028.98 698480.31
 181639.92 -250197.29 737840.26
 221200.29 -108485.89 761118.42
 244699.63 41638.905 760518.44
 250197.29 181639.92 737840.26
 239147.66 297178.25 703202.31
 216311.90 380627.99 669575.61
 192571.56 427739.61 648039.37
 -29265.740 -499806.84 623968.46
 -13139.312 -453935.94 658611.82
 12322.346 -368094.40 710179.32
 41638.905 -244699.63 760518.44
 69741.384 -92773.819 791535.95
 92773.820 69741.382 791535.95
 108485.88 221200.29 761118.42
 115929.73 344416.25 712697.51
 115524.43 430978.40 664011.84
 110594.66 478108.26 631807.97
 -110594.66 -478108.26 631807.97
 -115524.43 -430978.39 664011.84
 -115929.73 -344416.25 712697.51
 -108485.89 -221200.29 761118.42
 -92773.819 -69741.385 791535.95
 -69741.384 92773.821 791535.95
 -41638.904 244699.63 760518.44
 -12322.347 368094.40 710179.32
 13139.313 453935.94 658611.82
 29265.740 499806.84 623968.46
 -192571.56 -427739.61 648039.37
 -216311.89 -380627.99 669575.61
 -239147.66 -297178.25 703202.31
 -250197.29 -181639.92 737840.26
 -244699.63 -41638.903 760518.44
 -221200.29 108485.88 761118.42
 -181639.92 250197.29 737840.26
 -131965.82 367028.99 698480.31
 -82001.941 449432.61 656723.70
 -45729.306 493760.21 627781.56
 -267711.93 -351141.58 667105.62
 -305435.49 -307434.34 672453.19
 -343858.96 -232541.52 683875.32
 -367028.99 -131965.82 698480.31
 -368094.40 -12322.348 710179.32
 -344416.26 115929.74 712697.51
 -297178.24 239147.66 703202.31
 -232541.52 343858.96 683875.32
 -162915.59 420242.62 660949.81
 -109450.93 462482.58 643529.61
 -326955.52 -259238.63 682565.32
 -373338.48 -223869.71 671193.51
 -420242.62 -162915.59 660949.81
 -449432.61 -82001.941 656723.70
 -453935.94 13139.313 658611.82
 -430978.39 115524.43 664011.84
 -380627.99 216311.90 669575.61
 -307434.34 305435.49 672453.19
 -223869.71 373338.48 671193.51
 -156285.36 412356.81 667485.39
 -361669.94 -180156.39 690462.55
 -412356.81 -156285.36 667485.39
 -462482.58 -109450.93 643529.61
 -493760.21 -45729.306 627781.56
 -499806.84 29265.740 623968.46
 -478108.26 110594.66 631807.97
 -427739.61 192571.56 648039.37
 -351141.58 267711.94 667105.62
 -259238.63 326955.52 682565.32
 -180156.39 361669.94 690462.55
 124039.15 -429248.86 663596.04
 214144.09 -396562.25 660969.51
 323849.28 -337406.85 649059.52
 420092.75 -258577.12 629809.46
 488496.60 -170517.18 610159.78
 525529.20 -83280.453 597397.21
 532650.22 -4630.6838 596877.12
 513171.82 59617.811 610819.45
 473245.35 104111.02 636553.01
 429248.86 124039.15 663596.04
 104111.02 -473245.35 636553.01
 180927.00 -438555.45 644154.12
 281439.65 -372958.07 649379.71
 375098.85 -281127.24 648281.06
 445375.24 -173444.13 641527.89
 485413.05 -63125.349 632763.28
 494816.44 37811.374 627476.69
 476915.13 120915.98 630817.95
 438555.45 180927.00 644154.12
 396562.25 214144.09 660969.51
 59617.812 -513171.82 610819.45
 120915.98 -476915.13 630817.95
 206477.80 -404917.26 658338.01
 292225.22 -298304.78 682362.57
 361416.54 -166538.36 694005.09
 404159.85 -26947.053 689875.84
 417700.44 101741.18 674666.64
 404917.26 206477.79 658338.01
 372958.07 281439.65 649379.71
 337406.85 323849.28 649059.52
 -4630.6844 -532650.22 596877.12
 37811.375 -494816.44 627476.69
 101741.18 -417700.44 674666.64
 171556.19 -298866.98 721974.38
 233638.84 -146172.84 751030.22
 277642.23 19309.472 750027.96
 298866.98 171556.19 721974.38
 298304.78 292225.22 682362.57
 281127.24 375098.85 648281.06
 258577.12 420092.75 629809.46
 -83280.452 -525529.20 597397.21
 -63125.350 -485413.05 632763.28
 -26947.053 -404159.85 689875.84
 19309.472 -277642.23 750027.96
 68274.959 -112463.45 789107.41
 112463.45 68274.960 789107.41
 146172.84 233638.84 751030.22
 166538.36 361416.53 694005.09
 173444.13 445375.24 641527.89
 170517.18 488496.60 610159.78
 -170517.18 -488496.60 610159.78
 -173444.13 -445375.24 641527.89
 -166538.37 -361416.53 694005.09
 -146172.84 -233638.84 751030.22
 -112463.45 -68274.958 789107.41
 -68274.959 112463.45 789107.41
 -19309.473 277642.23 750027.96
 26947.053 404159.85 689875.84
 63125.349 485413.05 632763.28
 83280.453 525529.20 597397.21
 -258577.12 -420092.75 629809.46
 -281127.24 -375098.85 648281.06
 -298304.78 -292225.22 682362.57
 -298866.98 -171556.19 721974.38
 -277642.23 -19309.474 750027.96
 -233638.84 146172.85 751030.22
 -171556.19 298866.98 721974.38
 -101741.18 417700.44 674666.64
 -37811.375 494816.44 627476.69
 4630.6842 532650.22 596877.12
 -337406.85 -323849.28 649059.52
 -372958.07 -281439.65 649379.71
 -404917.26 -206477.79 658338.01
 -417700.44 -101741.18 674666.64
 -404159.85 26947.055 689875.84
 -361416.53 166538.36 694005.09
 -292225.22 298304.78 682362.57
 -206477.79 404917.26 658338.01
 -120915.98 476915.13 630817.95
 -59617.812 513171.82 610819.45
 -396562.25 -214144.09 660969.51
 -438555.45 -180927.00 644154.13
 -476915.13 -120915.98 630817.95
 -494816.44 -37811.374 627476.69
 -485413.05 63125.348 632763.28
 -445375.24 173444.13 641527.89
 -375098.85 281127.24 648281.06
 -281439.65 372958.07 649379.71
 -180927.00 438555.45 644154.13
 -104111.02 473245.35 636553.01
 -429248.86 -124039.15 663596.04
 -473245.35 -104111.02 636553.01
 -513171.82 -59617.812 610819.45
 -532650.22 4630.6840 596877.12
 -525529.20 83280.453 597397.21
 -488496.60 170517.18 610159.78
 -420092.75 258577.12 629809.46
 -323849.28 337406.85 649059.52
 -214144.09 396562.25 660969.51
 -124039.15 429248.86 663596.04
 70445.324 -492672.90 626347.24
 170393.10 -466524.86 627152.89
 296558.54 -411934.04 618355.38
 411715.06 -332435.10 599981.34
 497994.37 -239272.56 578576.06
 550219.49 -145204.54 562293.65
 569995.70 -60684.006 558052.29
 561511.32 6922.6469 569786.90
 530977.99 52005.941 596118.91
 492672.90 70445.324 626347.24
 52005.942 -530977.99 596118.91
 138406.64 -504815.74 604983.19
 256157.29 -446006.41 612749.32
 370974.31 -354641.00 613683.81
 462231.50 -240855.99 606902.32
 519962.12 -121014.23 595814.53
 542920.85 -11349.163 587459.06
 535376.42 77026.464 589439.58
 504815.74 138406.65 604983.19
 466524.86 170393.10 627152.89
 6922.6465 -561511.32 569786.90
 77026.465 -535376.42 589439.58
 180010.36 -472601.84 619874.00
 289382.71 -367638.00 648922.15
 383859.19 -227569.34 663976.14
 448025.36 -73600.256 658677.67
 476299.73 68147.307 639135.75
 472601.84 180010.36 619874.00
 446006.41 256157.28 612749.32
 411934.04 296558.54 618355.38
 -60684.006 -569995.70 558052.29
 -11349.164 -542920.85 587459.06
 68147.308 -476299.73 639135.75
 161606.92 -359074.40 696382.64
 251703.68 -194240.87 734108.81
 320878.85 -7970.6397 732784.58
 359074.40 161606.92 696382.64
 367638.00 289382.71 648922.15
 354641.00 370974.31 613683.81
 332435.10 411715.06 599981.34
 -145204.55 -550219.49 562293.65
 -121014.23 -519962.12 595814.53
 -73600.257 -448025.36 658677.67
 -7970.6396 -320878.85 732784.58
 67415.708 -139121.52 784920.59
 139121.52 67415.708 784920.59
 194240.87 251703.68 734108.81
 227569.34 383859.19 663976.14
 240855.99 462231.50 606902.32
 239272.56 497994.37 578576.06
 -239272.56 -497994.37 578576.06
 -240855.99 -462231.50 606902.32
 -227569.34 -383859.19 663976.14
 -194240.87 -251703.68 734108.81
 -139121.52 -67415.709 784920.58
 -67415.708 139121.52 784920.58
 7970.6397 320878.85 732784.58
 73600.257 448025.36 658677.67
 121014.23 519962.12 595814.53
 145204.54 550219.49 562293.65
 -332435.10 -411715.06 599981.34
 -354641.00 -370974.31 613683.81
 -367638.00 -289382.71 648922.15
 -359074.39 -161606.92 696382.64
 -320878.85 7970.6413 732784.58
 -251703.68 194240.87 734108.81
 -161606.92 359074.40 696382.64
 -68147.308 476299.73 639135.75
 11349.164 542920.85 587459.06
 60684.006 569995.70 558052.29
 -411934.04 -296558.54 618355.38
 -446006.41 -256157.28 612749.32
 -472601.84 -180010.36 619874.00
 -476299.73 -68147.307 639135.75
 -448025.36 73600.255 658677.67
 -383859.19 227569.34 663976.14
 -289382.71 367638.00 648922.15
 -180010.36 472601.84 619874.00
 -77026.465 535376.42 589439.58
 -6922.6465 561511.32 569786.90
 -466524.86 -170393.10 627152.89
 -504815.74 -138406.65 604983.19
 -535376.42 -77026.464 589439.58
 -542920.85 11349.163 587459.06
 -519962.12 121014.23 595814.53
 -462231.50 240855.99 606902.32
 -370974.31 354641.00 613683.81
 -256157.29 446006.41 612749.32
 -138406.64 504815.74 604983.19
 -52005.942 530977.99 596118.91
 -492672.90 -70445.324 626347.24
 -530977.99 -52005.941 596118.91
 -561511.32 -6922.6467 569786.90
 -569995.70 60684.006 558052.29
 -550219.49 145204.54 562293.65
 -497994.37 239272.56 578576.06
 -411715.06 332435.10 599981.34
 -296558.54 411934.04 618355.38
 -170393.10 466524.86 627152.89
 -70445.324 492672.90 626347.24
 29706.091 -540695.81 588868.06
 137569.07 -522277.89 590169.94
 273999.14 -473758.23 583504.59
 401563.02 -396252.80 567213.24
 500744.40 -300807.24 546598.62
 564769.35 -201701.82 529482.73
 594723.07 -111539.54 523319.60
 595299.91 -39297.298 532985.68