# OOMMF OVF 2.0
#
# Segment count: 1
#
# Begin: Segment
# Begin: Header
#
# Title: Oxs_MinDriver::Magnetization
# Desc: Oxs vector field output
# Desc:  MIF source file: /home/ryan/Git/joommf/tools/omfvis/cube_example.mif
# Desc:  Iteration: 5233, State id: 11130
# Desc:  Stage: 29, Stage iteration: 34
# Desc:  Stage simulation time: 0 s
# Desc:  Total simulation time: -2 s
# meshunit: m
# meshtype: rectangular
# xbase: 2.5000000000000001e-09
# ybase: 2.5000000000000001e-09
# zbase: 2.5000000000000001e-09
# xnodes: 10
# ynodes: 10
# znodes: 10
# xstepsize: 5.0000000000000001e-09
# ystepsize: 5.0000000000000001e-09
# zstepsize: 5.0000000000000001e-09
# xmin: 0
# ymin: 0
# zmin: 0
# xmax: 4.9999999999999998e-08
# ymax: 4.9999999999999998e-08
# zmax: 4.9999999999999998e-08
# valuedim: 3
# valuelabels: Magnetization_x Magnetization_y Magnetization_z
# valueunits: A/m A/m A/m
#
# End: Header
#
# Begin: Data Text
 273703.74 273703.85 700123.18
 241901.93 280161.41 709220.02
 188226.95 286837.19 722699.83
 119375.10 291795.17 735258.57
 40909.111 294398.84 742735.33
 -40909.342 294398.82 742735.32
 -119375.32 291795.10 735258.56
 -188227.13 286837.09 722699.82
 -241902.07 280161.30 709220.02
 -273703.84 273703.73 700123.19
 280161.31 241902.08 709220.01
 250436.84 250436.98 717330.26
 196552.38 258362.84 731174.26
 125336.63 264143.75 744660.20
 43066.965 267184.12 752833.24
 -43067.182 267184.09 752833.23
 -125336.82 264143.67 744660.19
 -196552.55 258362.72 731174.26
 -250436.97 250436.83 717330.27
 -280161.41 241901.92 709220.03
 286837.10 188227.13 722699.81
 258362.73 196552.56 731174.25
 204330.30 204330.45 745988.07
 131030.23 209996.42 760744.75
 45155.427 212980.12 769805.47
 -45155.602 212980.08 769805.47
 -131030.39 209996.31 760744.76
 -204330.44 204330.29 745988.07
 -258362.84 196552.37 731174.27
 -286837.19 188226.94 722699.83
 291795.12 119375.32 735258.55
 264143.68 125336.83 744660.19
 209996.33 131030.40 760744.75
 135211.09 135211.20 776811.36
 46698.578 137419.87 786724.23
 -46698.683 137419.83 786724.24
 -135211.19 135211.08 776811.37
 -209996.41 131030.22 760744.76
 -264143.74 125336.61 744660.20
 -291795.16 119375.09 735258.57
 294398.83 40909.351 742735.32
 267184.11 43067.190 752833.23
 212980.10 45155.612 769805.46
 137419.85 46698.693 786724.23
 47515.946 47515.973 797172.80
 -47515.961 47515.925 797172.80
 -137419.86 46698.557 786724.24
 -212980.11 45155.409 769805.47
 -267184.12 43066.948 752833.24
 -294398.84 40909.095 742735.33
 294398.85 -40909.103 742735.32
 267184.14 -43066.956 752833.23
 212980.13 -45155.418 769805.46
 137419.89 -46698.567 786724.23
 47515.994 -47515.934 797172.80
 -47515.913 -47515.983 797172.80
 -137419.82 -46698.702 786724.24
 -212980.07 -45155.621 769805.47
 -267184.09 -43067.198 752833.24
 -294398.81 -40909.357 742735.33
 291795.18 -119375.10 735258.57
 264143.76 -125336.62 744660.19
 209996.43 -131030.22 760744.75
 135211.22 -135211.08 776811.36
 46698.713 -137419.84 786724.23
 -46698.546 -137419.88 786724.23
 -135211.07 -135211.21 776811.36
 -209996.30 -131030.41 760744.76
 -264143.66 -125336.84 744660.19
 -291795.10 -119375.33 735258.56
 286837.20 -188226.94 722699.83
 258362.86 -196552.38 731174.26
 204330.46 -204330.30 745988.06
 131030.42 -209996.32 760744.75
 45155.631 -212980.09 769805.46
 -45155.399 -212980.12 769805.47
 -131030.21 -209996.42 760744.76
 -204330.28 -204330.45 745988.07
 -258362.71 -196552.56 731174.26
 -286837.09 -188227.14 722699.82
 280161.42 -241901.93 709220.02
 250436.99 -250436.84 717330.26
 196552.57 -258362.73 731174.25
 125336.85 -264143.67 744660.19
 43067.207 -267184.10 752833.23
 -43066.940 -267184.13 752833.24
 -125336.60 -264143.76 744660.20
 -196552.36 -258362.85 731174.27
 -250436.82 -250436.98 717330.27
 -280161.29 -241902.08 709220.02
 273703.85 -273703.73 700123.18
 241902.09 -280161.30 709220.01
 188227.15 -286837.10 722699.81
 119375.34 -291795.11 735258.55
 40909.365 -294398.82 742735.32
 -40909.088 -294398.85 742735.33
 -119375.08 -291795.18 735258.57
 -188226.93 -286837.19 722699.83
 -241901.92 -280161.41 709220.02
 -273703.72 -273703.85 700123.19
 220863.05 220863.16 736504.57
 197634.44 217979.16 743925.88
 154524.89 217202.84 754284.42
 97972.319 217084.43 763724.93
 33531.447 217069.09 769257.21
 -33531.668 217069.07 769257.20
 -97972.522 217084.37 763724.93
 -154525.06 217202.75 754284.41
 -197634.58 217979.05 743925.87
 -220863.15 220863.04 736504.57
 217979.06 197634.58 743925.87
 197722.24 197722.37 749541.05
 156032.05 198421.70 759132.95
 99410.717 199097.46 768425.47
 34093.735 199459.07 773985.59
 -34093.936 199459.05 773985.59
 -99410.901 199097.39 768425.47
 -156032.21 198421.58 759132.94
 -197722.36 197722.23 749541.05
 -217979.16 197634.43 743925.88
 217202.76 154525.07 754284.41
 198421.59 156032.22 759132.94
 157675.45 157675.58 768294.78
 100922.50 158844.52 777549.40
 34688.728 159422.09 783186.62
 -34688.886 159422.06 783186.62
 -100922.65 158844.43 777549.40
 -157675.57 157675.44 768294.78
 -198421.69 156032.04 759132.95
 -217202.84 154524.88 754284.42
 217084.38 97972.530 763724.92
 199097.40 99410.908 768425.47
 158844.44 100922.66 777549.39
 101964.93 101965.03 786896.62
 35098.616 102471.40 792633.40
 -35098.711 102471.36 792633.40
 -101965.02 101964.92 786896.62
 -158844.51 100922.49 777549.40
 -199097.46 99410.703 768425.48
 -217084.42 97972.307 763724.94
 217069.08 33531.675 769257.20
 199459.06 34093.944 773985.59
 159422.07 34688.893 783186.62
 102471.37 35098.720 792633.39
 35297.175 35297.200 798441.12
 -35297.191 35297.158 798441.12
 -102471.39 35098.602 792633.40
 -159422.08 34688.711 783186.63
 -199459.07 34093.722 773985.59
 -217069.09 33531.434 769257.21
 217069.10 -33531.440 769257.20
 199459.09 -34093.729 773985.59
 159422.10 -34688.719 783186.62
 102471.41 -35098.608 792633.39
 35297.215 -35297.166 798441.12
 -35297.148 -35297.206 798441.12
 -102471.35 -35098.728 792633.40
 -159422.05 -34688.899 783186.63
 -199459.04 -34093.950 773985.59
 -217069.07 -33531.680 769257.20
 217084.44 -97972.314 763724.93
 199097.47 -99410.711 768425.47
 158844.54 -100922.50 777549.40
 101965.04 -101964.93 786896.62
 35098.737 -102471.36 792633.39
 -35098.593 -102471.40 792633.40
 -101964.91 -101965.04 786896.62
 -158844.42 -100922.66 777549.40
 -199097.38 -99410.913 768425.47
 -217084.36 -97972.534 763724.93
 217202.85 -154524.89 754284.42
 198421.71 -156032.05 759132.94
 157675.59 -157675.44 768294.78
 100922.67 -158844.43 777549.39
 34688.908 -159422.07 783186.62
 -34688.704 -159422.10 783186.62
 -100922.48 -158844.53 777549.40
 -157675.43 -157675.58 768294.78
 -198421.57 -156032.22 759132.94
 -217202.75 -154525.07 754284.41
 217979.17 -197634.44 743925.88
 197722.38 -197722.23 749541.05
 156032.23 -198421.59 759132.94
 99410.921 -199097.39 768425.47
 34093.957 -199459.05 773985.59
 -34093.715 -199459.08 773985.59
 -99410.698 -199097.47 768425.48
 -156032.04 -198421.70 759132.95
 -197722.22 -197722.37 749541.05
 -217979.05 -197634.58 743925.87
 220863.16 -220863.05 736504.57
 197634.59 -217979.06 743925.87
 154525.08 -217202.76 754284.40
 97972.541 -217084.37 763724.92
 33531.687 -217069.08 769257.20
 -33531.428 -217069.10 769257.21
 -97972.301 -217084.43 763724.94
 -154524.88 -217202.84 754284.42
 -197634.43 -217979.16 743925.88
 -220863.04 -220863.16 736504.57
 154836.84 154836.94 769448.55
 138181.61 147504.43 774046.69
 107787.95 141833.19 779913.52
 68141.919 138139.31 785031.34
 23273.370 136290.15 787961.51
 -23273.576 136290.13 787961.51
 -68142.108 138139.26 785031.34
 -107788.12 141833.11 779913.51
 -138181.74 147504.33 774046.69
 -154836.94 154836.83 769448.56
 147504.34 138181.74 774046.69
 133665.63 133665.76 777346.10
 105384.59 129509.36 782381.89
 66981.499 126634.64 787068.71
 22925.717 125167.51 789814.86
 -22925.899 125167.48 789814.85
 -66981.669 126634.57 787068.70
 -105384.73 129509.26 782381.88
 -133665.75 133665.63 777346.11
 -147504.43 138181.60 774046.70
 141833.12 107788.12 779913.51
 129509.26 105384.74 782381.88
 102896.30 102896.42 786654.10
 65721.579 101023.77 790869.69
 22544.699 100026.60 793401.80
 -22544.840 100026.57 793401.80
 -65721.708 101023.69 790869.69
 -102896.41 102896.29 786654.11
 -129509.35 105384.58 782381.89
 -141833.19 107787.94 779913.52
 138139.26 68142.114 785031.33
 126634.58 66981.675 787068.70
 101023.70 65721.714 790869.69
 64709.908 64709.994 794748.54
 22228.630 64148.824 797114.05
 -22228.714 64148.791 797114.06
 -64709.987 64709.899 794748.54
 -101023.76 65721.567 790869.70
 -126634.63 66981.491 787068.71
 -138139.31 68141.909 785031.35
 136290.14 23273.581 787961.51
 125167.49 22925.904 789814.85
 100026.58 22544.846 793401.80
 64148.803 22228.719 797114.05
 22049.192 22049.216 799392.06
 -22049.210 22049.182 799392.06
 -64148.818 22228.618 797114.06
 -100026.59 22544.691 793401.80
 -125167.50 22925.706 789814.86
 -136290.14 23273.362 787961.51
 136290.16 -23273.366 787961.51
 125167.51 -22925.712 789814.86
 100026.61 -22544.695 793401.80
 64148.833 -22228.624 797114.05
 22049.228 -22049.186 799392.06
 -22049.176 -22049.222 799392.06
 -64148.785 -22228.723 797114.06
 -100026.56 -22544.852 793401.80
 -125167.48 -22925.906 789814.86
 -136290.13 -23273.585 787961.51
 138139.32 -68141.916 785031.34
 126634.64 -66981.496 787068.70
 101023.78 -65721.574 790869.69
 64710.004 -64709.903 794748.54
 22228.729 -64148.796 797114.05
 -22228.613 -64148.827 797114.06
 -64709.894 -64709.998 794748.54
 -101023.68 -65721.716 790869.69
 -126634.56 -66981.678 787068.70
 -138139.25 -68142.116 785031.34
 141833.20 -107787.95 779913.52
 129509.37 -105384.59 782381.88
 102896.43 -102896.30 786654.10
 65721.722 -101023.69 790869.69
 22544.856 -100026.57 793401.80
 -22544.685 -100026.60 793401.80
 -65721.563 -101023.77 790869.69
 -102896.29 -102896.42 786654.10
 -129509.25 -105384.74 782381.88
 -141833.11 -107788.12 779913.51
 147504.44 -138181.61 774046.69
 133665.76 -133665.63 777346.10
 105384.75 -129509.26 782381.88
 66981.683 -126634.57 787068.70
 22925.913 -125167.49 789814.85
 -22925.702 -125167.51 789814.86
 -66981.486 -126634.64 787068.71
 -105384.58 -129509.36 782381.89
 -133665.62 -133665.76 777346.11
 -147504.33 -138181.74 774046.69
 154836.95 -154836.84 769448.55
 138181.75 -147504.34 774046.69
 107788.13 -141833.12 779913.51
 68142.122 -138139.26 785031.33
 23273.590 -136290.13 787961.51
 -23273.357 -136290.15 787961.51
 -68141.906 -138139.31 785031.34
 -107787.94 -141833.20 779913.52
 -138181.60 -147504.43 774046.70
 -154836.83 -154836.94 769448.55
 89426.170 89426.268 789940.44
 79287.290 83002.205 791722.27
 61519.411 77407.688 793866.12
 38746.782 73591.503 795665.12
 13207.125 71668.035 796673.88
 -13207.317 71668.018 796673.87
 -38746.960 73591.455 795665.11
 -61519.563 77407.613 793866.11
 -79287.411 83002.110 791722.27
 -89426.263 89426.164 789940.44
 83002.116 79287.416 791722.27
 74826.647 74826.758 792970.32
 58769.804 70373.796 794728.66
 37250.692 67198.330 796301.93
 12729.766 65576.123 797206.20
 -12729.934 65576.103 797206.20
 -37250.847 67198.270 796301.93
 -58769.940 70373.702 794728.66
 -74826.754 74826.641 792970.32
 -83002.200 79287.283 791722.28
 77407.618 61519.567 793866.11
 70373.708 58769.944 794728.65
 55776.654 55776.761 796101.70
 35564.233 53524.619 797414.76
 12186.656 52344.671 798192.66
 -12186.784 52344.645 798192.66
 -35564.354 53524.547 797414.76
 -55776.757 55776.647 796101.70
 -70373.792 58769.799 794728.66
 -77407.683 61519.404 793866.12
 73591.460 38746.964 795665.11
 67198.276 37250.851 796301.93
 53524.552 35564.358 797414.76
 34250.334 34250.410 798532.29
 11757.103 33547.363 799209.83
 -11757.181 33547.335 799209.83
 -34250.406 34250.327 798532.29
 -53524.616 35564.229 797414.76
 -67198.326 37250.684 796301.93
 -73591.500 38746.777 795665.12
 71668.024 13207.320 796673.87
 65576.107 12729.938 797206.20
 52344.652 12186.787 798192.66
 33547.340 11757.185 799209.83
 11524.804 11524.827 799833.96
 -11524.824 11524.797 799833.96
 -33547.359 11757.099 799209.83
 -52344.667 12186.647 798192.66
 -65576.119 12729.763 797206.20
 -71668.032 13207.119 796673.88
 71668.040 -13207.122 796673.88
 65576.129 -12729.764 797206.20
 52344.675 -12186.652 798192.66
 33547.369 -11757.100 799209.83
 11524.833 -11524.800 799833.96
 -11524.794 -11524.830 799833.96
 -33547.331 -11757.189 799209.83
 -52344.642 -12186.787 798192.66
 -65576.100 -12729.942 797206.20
 -71668.016 -13207.321 796673.87
 73591.508 -38746.780 795665.12
 67198.334 -37250.690 796301.93
 53524.625 -35564.231 797414.76
 34250.415 -34250.331 798532.29
 11757.191 -33547.337 799209.83
 -11757.095 -33547.365 799209.83
 -34250.324 -34250.410 798532.29
 -53524.544 -35564.361 797414.76
 -67198.268 -37250.851 796301.93
 -73591.453 -38746.965 795665.11
 77407.691 -61519.409 793866.12
 70373.800 -58769.802 794728.66
 55776.765 -55776.652 796101.70
 35564.363 -53524.549 797414.76
 12186.792 -52344.649 798192.66
 -12186.646 -52344.672 798192.66
 -35564.225 -53524.621 797414.76
 -55776.645 -55776.760 796101.70
 -70373.700 -58769.944 794728.66
 -77407.611 -61519.567 793866.11
 83002.208 -79287.289 791722.27
 74826.762 -74826.646 792970.32
 58769.948 -70373.706 794728.65
 37250.855 -67198.274 796301.93
 12729.943 -65576.105 797206.20
 -12729.758 -65576.125 797206.20
 -37250.683 -67198.330 796301.93
 -58769.796 -70373.796 794728.66
 -74826.640 -74826.758 792970.32
 -83002.109 -79287.414 791722.27
 89426.270 -89426.169 789940.44
 79287.419 -83002.115 791722.27
 61519.571 -77407.617 793866.11
 38746.968 -73591.458 795665.11
 13207.325 -71668.021 796673.87
 -13207.117 -71668.037 796673.88
 -38746.774 -73591.504 795665.12
 -61519.403 -77407.687 793866.12
 -79287.282 -83002.203 791722.28
 -89426.163 -89426.266 789940.44
 28981.200 28981.295 798949.42
 25583.969 26533.860 799150.43
 19777.049 24320.415 799385.63
 12426.107 22788.975 799578.80
 4230.4669 22015.578 799685.82
 -4230.6525 22015.563 799685.82
 -12426.280 22788.931 799578.80
 -19777.199 24320.345 799385.63
 -25584.089 26533.772 799150.43
 -28981.293 28981.197 798949.42
 26533.774 25584.091 799150.43
 23835.087 23835.196 799289.54
 18668.064 22042.682 799478.34
 11811.989 20751.586 799643.58
 4033.0712 20091.598 799737.50
 -4033.2333 20091.578 799737.50
 -11812.141 20751.532 799643.58
 -18668.196 22042.595 799478.34
 -23835.193 23835.085 799289.54
 -26533.858 25583.966 799150.43
 24320.348 19777.201 799385.63
 22042.597 18668.197 799478.34
 17437.974 17438.077 799619.80
 11108.059 16509.360 799752.49
 3804.6306 16024.167 799830.45
 -3804.7552 16024.144 799830.45
 -11108.175 16509.292 799752.49
 -17438.075 17437.973 799619.80
 -22042.679 18668.061 799478.34
 -24320.413 19777.047 799385.63
 22788.933 12426.282 799578.80
 20751.533 11812.143 799643.58
 16509.295 11108.177 799752.49
 10560.450 10560.524 799860.58
 3624.6270 10269.277 799925.87
 -3624.7039 10269.251 799925.87
 -10560.522 10560.449 799860.58
 -16509.358 11108.055 799752.49
 -20751.584 11811.989 799643.58
 -22788.973 12426.104 799578.80
 22015.565 4230.6542 799685.82
 20091.581 4033.2347 799737.50
 16024.146 3804.7571 799830.45
 10269.253 3624.7055 799925.87
 3528.0533 3528.0791 799984.44
 -3528.0771 3528.0510 799984.44
 -10269.275 3624.6240 799925.87
 -16024.165 3804.6312 799830.45
 -20091.596 4033.0667 799737.50
 -22015.577 4230.4661 799685.82
 22015.580 -4230.4656 799685.82
 20091.599 -4033.0696 799737.50
 16024.169 -3804.6293 799830.45
 10269.279 -3624.6250 799925.87
 3528.0801 -3528.0517 799984.44
 -3528.0489 -3528.0786 799984.44
 -10269.250 -3624.7047 799925.87
 -16024.143 -3804.7593 799830.45
 -20091.577 -4033.2323 799737.50
 -22015.562 -4230.6551 799685.82
 22788.976 -12426.106 799578.80
 20751.587 -11811.988 799643.58
 16509.361 -11108.057 799752.49
 10560.525 -10560.449 799860.58
 3624.7076 -10269.251 799925.87
 -3624.6234 -10269.277 799925.87
 -10560.446 -10560.525 799860.58
 -16509.291 -11108.175 799752.49
 -20751.530 -11812.144 799643.58
 -22788.930 -12426.281 799578.80
 24320.416 -19777.048 799385.63
 22042.683 -18668.063 799478.34
 17438.078 -17437.972 799619.80
 11108.178 -16509.294 799752.49
 3804.7590 -16024.144 799830.45
 -3804.6277 -16024.167 799830.45
 -11108.055 -16509.359 799752.49
 -17437.970 -17438.077 799619.80
 -22042.594 -18668.196 799478.34
 -24320.344 -19777.200 799385.63
 26533.861 -25583.968 799150.43
 23835.196 -23835.086 799289.54
 18668.199 -22042.596 799478.34
 11812.144 -20751.532 799643.58
 4033.2358 -20091.579 799737.50
 -4033.0672 -20091.597 799737.50
 -11811.986 -20751.586 799643.58
 -18668.061 -22042.680 799478.34
 -23835.083 -23835.194 799289.54
 -26533.771 -25584.089 799150.43
 28981.296 -28981.199 798949.42
 25584.092 -26533.774 799150.43
 19777.202 -24320.346 799385.63
 12426.283 -22788.932 799578.80
 4230.6559 -22015.563 799685.82
 -4230.4640 -22015.578 799685.82
 -12426.104 -22788.974 799578.80
 -19777.046 -24320.414 799385.63
 -25583.966 -26533.859 799150.43
 -28981.196 -28981.293 798949.42
 -28981.294 -28981.197 798949.42
 -25584.090 -26533.772 799150.43
 -19777.201 -24320.345 799385.63
 -12426.282 -22788.930 799578.80
 -4230.6551 -22015.562 799685.82
 4230.4645 -22015.577 799685.82
 12426.104 -22788.973 799578.80
 19777.046 -24320.414 799385.63
 25583.966 -26533.858 799150.43
 28981.196 -28981.293 798949.42
 -26533.859 -25583.966 799150.43
 -23835.195 -23835.085 799289.54
 -18668.197 -22042.594 799478.34
 -11812.143 -20751.530 799643.58
 -4033.2350 -20091.578 799737.50
 4033.0679 -20091.596 799737.50
 11811.986 -20751.586 799643.58
 18668.061 -22042.679 799478.34
 23835.084 -23835.195 799289.54
 26533.771 -25584.089 799150.43
 -24320.415 -19777.046 799385.63
 -22042.681 -18668.061 799478.34
 -17438.078 -17437.971 799619.80
 -11108.177 -16509.292 799752.49
 -3804.7585 -16024.143 799830.45
 3804.6289 -16024.166 799830.45
 11108.056 -16509.357 799752.49
 17437.971 -17438.077 799619.80
 22042.595 -18668.195 799478.34
 24320.345 -19777.200 799385.63
 -22788.975 -12426.104 799578.80
 -20751.587 -11811.986 799643.58
 -16509.359 -11108.056 799752.49
 -10560.525 -10560.447 799860.58
 -3624.7055 -10269.250 799925.87
 3624.6234 -10269.276 799925.87
 10560.448 -10560.524 799860.58
 16509.292 -11108.173 799752.49
 20751.531 -11812.143 799643.58
 22788.931 -12426.280 799578.80
 -22015.579 -4230.4643 799685.82
 -20091.598 -4033.0679 799737.50
 -16024.168 -3804.6282 799830.45
 -10269.277 -3624.6234 799925.87
 -3528.0806 -3528.0504 799984.44
 3528.0514 -3528.0774 799984.44
 10269.250 -3624.7034 799925.87
 16024.143 -3804.7584 799830.45
 20091.578 -4033.2312 799737.50
 22015.563 -4230.6543 799685.82
 -22015.564 4230.6554 799685.82
 -20091.580 4033.2357 799737.50
 -16024.144 3804.7587 799830.45
 -10269.253 3624.7064 799925.87
 -3528.0509 3528.0807 799984.44
 3528.0772 3528.0522 799984.44
 10269.277 3624.6253 799925.87
 16024.166 3804.6325 799830.45
 20091.597 4033.0678 799737.50
 22015.578 4230.4673 799685.82
 -22788.933 12426.283 799578.80
 -20751.532 11812.144 799643.58
 -16509.295 11108.177 799752.49
 -10560.448 10560.526 799860.58
 -3624.6263 10269.278 799925.87
 3624.7053 10269.253 799925.87
 10560.523 10560.450 799860.58
 16509.359 11108.056 799752.49
 20751.585 11811.990 799643.58
 22788.975 12426.106 799578.80
 -24320.347 19777.202 799385.63
 -22042.597 18668.198 799478.34
 -17437.972 17438.079 799619.80
 -11108.058 16509.360 799752.49
 -3804.6301 16024.169 799830.45
 3804.7569 16024.145 799830.45
 11108.176 16509.294 799752.49
 17438.076 17437.974 799619.80
 22042.681 18668.062 799478.34
 24320.414 19777.049 799385.63
 -26533.774 25584.091 799150.43
 -23835.086 23835.196 799289.54
 -18668.064 22042.682 799478.34
 -11811.988 20751.587 799643.58
 -4033.0695 20091.599 799737.50
 4033.2336 20091.580 799737.50
 11812.142 20751.533 799643.58
 18668.197 22042.596 799478.34
 23835.194 23835.087 799289.54
 26533.860 25583.968 799150.43
 -28981.199 28981.296 798949.42
 -25583.969 26533.860 799150.43
 -19777.048 24320.416 799385.63
 -12426.106 22788.976 799578.80
 -4230.4664 22015.579 799685.82
 4230.6539 22015.564 799685.82
 12426.281 22788.932 799578.80
 19777.200 24320.347 799385.63
 25584.091 26533.774 799150.43
 28981.295 28981.199 798949.42
 -89426.268 -89426.165 789940.44
 -79287.417 -83002.111 791722.27
 -61519.569 -77407.613 793866.11
 -38746.967 -73591.455 795665.11
 -13207.323 -71668.018 796673.87
 13207.117 -71668.033 796673.88
 38746.774 -73591.501 795665.12
 61519.403 -77407.684 793866.12
 79287.282 -83002.201 791722.28
 89426.162 -89426.264 789940.44
 -83002.206 -79287.285 791722.27
 -74826.759 -74826.641 792970.32
 -58769.947 -70373.703 794728.66
 -37250.853 -67198.270 796301.93
 -12729.943 -65576.101 797206.20
 12729.760 -65576.122 797206.20
 37250.683 -67198.326 796301.93
 58769.797 -70373.794 794728.66
 74826.639 -74826.754 792970.32
 83002.109 -79287.412 791722.27
 -77407.689 -61519.405 793866.12
 -70373.799 -58769.799 794728.66
 -55776.762 -55776.647 796101.70
 -35564.363 -53524.546 797414.76
 -12186.789 -52344.645 798192.66
 12186.645 -52344.668 798192.66
 35564.227 -53524.619 797414.76
 55776.645 -55776.756 796101.70
 70373.701 -58769.943 794728.66
 77407.611 -61519.564 793866.11
 -73591.506 -38746.776 795665.12
 -67198.332 -37250.684 796301.93
 -53524.624 -35564.227 797414.76
 -34250.412 -34250.326 798532.29
 -11757.192 -33547.333 799209.83
 11757.097 -33547.362 799209.83
 34250.324 -34250.406 798532.29
 53524.545 -35564.358 797414.76
 67198.268 -37250.847 796301.93
 73591.453 -38746.962 795665.11
 -71668.038 -13207.118 796673.88
 -65576.127 -12729.760 797206.20
 -52344.673 -12186.647 798192.66
 -33547.369 -11757.097 799209.83
 -11524.830 -11524.796 799833.96
 11524.794 -11524.826 799833.96
 33547.333 -11757.185 799209.83
 52344.643 -12186.783 798192.66
 65576.101 -12729.939 797206.20
 71668.017 -13207.317 796673.87
 -71668.023 13207.323 796673.87
 -65576.106 12729.942 797206.20
 -52344.651 12186.790 798192.66
 -33547.338 11757.190 799209.83
 -11524.803 11524.831 799833.96
 11524.826 11524.802 799833.96
 33547.360 11757.103 799209.83
 52344.669 12186.650 798192.66
 65576.121 12729.766 797206.20
 71668.033 13207.122 796673.88
 -73591.459 38746.968 795665.11
 -67198.276 37250.854 796301.93
 -53524.551 35564.363 797414.76
 -34250.333 34250.412 798532.29
 -11757.102 33547.368 799209.83
 11757.183 33547.339 799209.83
 34250.408 34250.330 798532.29
 53524.618 35564.233 797414.76
 67198.328 37250.688 796301.93
 73591.501 38746.780 795665.12
 -77407.618 61519.570 793866.11
 -70373.707 58769.948 794728.65
 -55776.654 55776.763 796101.70
 -35564.232 53524.624 797414.76
 -12186.653 52344.674 798192.66
 12186.784 52344.650 798192.66
 35564.356 53524.551 797414.76
 55776.759 55776.650 796101.70
 70373.794 58769.803 794728.66
 77407.686 61519.408 793866.12
 -83002.115 79287.418 791722.27
 -74826.647 74826.760 792970.32
 -58769.803 70373.800 794728.66
 -37250.691 67198.332 796301.93
 -12729.766 65576.127 797206.20
 12729.937 65576.106 797206.20
 37250.849 67198.274 796301.93
 58769.942 70373.707 794728.66
 74826.757 74826.644 792970.32
 83002.202 79287.287 791722.27
 -89426.170 89426.270 789940.44
 -79287.289 83002.207 791722.27
 -61519.410 77407.690 793866.12
 -38746.781 73591.507 795665.12
 -13207.124 71668.038 796673.88
 13207.318 71668.022 796673.87
 38746.962 73591.459 795665.11
 61519.566 77407.616 793866.11
 79287.413 83002.114 791722.27
 89426.266 89426.167 789940.44
 -154836.94 -154836.83 769448.55
 -138181.74 -147504.33 774046.69
 -107788.13 -141833.11 779913.51
 -68142.119 -138139.26 785031.34
 -23273.589 -136290.13 787961.51
 23273.358 -136290.15 787961.51
 68141.906 -138139.31 785031.34
 107787.94 -141833.19 779913.52
 138181.60 -147504.43 774046.70
 154836.83 -154836.94 769448.56
 -147504.44 -138181.60 774046.70
 -133665.76 -133665.63 777346.10
 -105384.74 -129509.25 782381.88
 -66981.683 -126634.57 787068.70
 -22925.910 -125167.48 789814.85
 22925.702 -125167.50 789814.86
 66981.488 -126634.63 787068.71
 105384.58 -129509.35 782381.89
 133665.62 -133665.75 777346.11
 147504.33 -138181.74 774046.69
 -141833.20 -107787.95 779913.52
 -129509.36 -105384.58 782381.89
 -102896.43 -102896.29 786654.10
 -65721.719 -101023.68 790869.69
 -22544.856 -100026.57 793401.80
 22544.687 -100026.60 793401.80
 65721.563 -101023.76 790869.70
 102896.29 -102896.42 786654.11
 129509.25 -105384.73 782381.88
 141833.11 -107788.12 779913.51
 -138139.31 -68141.908 785031.34
 -126634.64 -66981.490 787068.71
 -101023.77 -65721.565 790869.69
 -64710.003 -64709.897 794748.54
 -22228.726 -64148.789 797114.05
 22228.613 -64148.820 797114.06
 64709.896 -64709.992 794748.54
 101023.68 -65721.709 790869.69
 126634.57 -66981.673 787068.70
 138139.25 -68142.110 785031.34
 -136290.15 -23273.360 787961.51
 -125167.51 -22925.704 789814.86
 -100026.61 -22544.688 793401.80
 -64148.830 -22228.616 797114.05
 -22049.227 -22049.179 799392.06
 22049.179 -22049.215 799392.06
 64148.786 -22228.716 797114.06
 100026.57 -22544.846 793401.80
 125167.48 -22925.900 789814.86
 136290.13 -23273.580 787961.51
 -136290.14 23273.588 787961.51
 -125167.49 22925.910 789814.85
 -100026.58 22544.855 793401.80
 -64148.800 22228.726 797114.05
 -22049.189 22049.225 799392.06
 22049.212 22049.189 799392.06
 64148.820 22228.624 797114.06
 100026.59 22544.698 793401.80
 125167.50 22925.711 789814.86
 136290.15 23273.367 787961.51
 -138139.26 68142.120 785031.33
 -126634.58 66981.682 787068.70
 -101023.69 65721.719 790869.69
 -64709.906 64710.002 794748.54
 -22228.627 64148.830 797114.05
 22228.716 64148.798 797114.05
 64709.990 64709.906 794748.54
 101023.76 65721.573 790869.69
 126634.63 66981.497 787068.71
 138139.31 68141.915 785031.34
 -141833.12 107788.13 779913.51
 -129509.26 105384.74 782381.88
 -102896.30 102896.43 786654.10
 -65721.576 101023.77 790869.69
 -22544.698 100026.61 793401.80
 22544.844 100026.58 793401.80
 65721.710 101023.69 790869.69
 102896.42 102896.30 786654.10
 129509.36 105384.59 782381.89
 141833.19 107787.95 779913.52
 -147504.34 138181.75 774046.69
 -133665.63 133665.76 777346.10
 -105384.59 129509.36 782381.88
 -66981.498 126634.64 787068.70
 -22925.714 125167.51 789814.86
 22925.901 125167.49 789814.85
 66981.672 126634.57 787068.70
 105384.74 129509.26 782381.88
 133665.75 133665.63 777346.10
 147504.43 138181.61 774046.70
 -154836.84 154836.95 769448.55
 -138181.61 147504.44 774046.69
 -107787.95 141833.20 779913.52
 -68141.918 138139.32 785031.34
 -23273.369 136290.15 787961.51
 23273.579 136290.13 787961.51
 68142.111 138139.26 785031.34
 107788.12 141833.12 779913.51
 138181.74 147504.34 774046.69
 154836.94 154836.84 769448.55
 -220863.16 -220863.04 736504.57
 -197634.59 -217979.05 743925.87
 -154525.08 -217202.75 754284.41
 -97972.539 -217084.36 763724.92
 -33531.685 -217069.07 769257.20
 33531.428 -217069.09 769257.21
 97972.302 -217084.42 763724.94
 154524.88 -217202.84 754284.42
 197634.43 -217979.16 743925.88
 220863.04 -220863.15 736504.57
 -217979.17 -197634.43 743925.88
 -197722.37 -197722.23 749541.05
 -156032.23 -198421.58 759132.94
 -99410.917 -199097.38 768425.47
 -34093.956 -199459.04 773985.59
 34093.717 -199459.07 773985.59
 99410.698 -199097.46 768425.48
 156032.04 -198421.69 759132.95
 197722.22 -197722.36 749541.05
 217979.05 -197634.58 743925.87
 -217202.85 -154524.88 754284.42
 -198421.70 -156032.04 759132.95
 -157675.59 -157675.43 768294.78
 -100922.67 -158844.42 777549.40
 -34688.904 -159422.06 783186.62
 34688.705 -159422.09 783186.63
 100922.48 -158844.52 777549.40
 157675.43 -157675.58 768294.78
 198421.58 -156032.21 759132.94
 217202.75 -154525.06 754284.41
 -217084.43 -97972.305 763724.93
 -199097.47 -99410.701 768425.47
 -158844.53 -100922.49 777549.40
 -101965.04 -101964.92 786896.62
 -35098.735 -102471.35 792633.40
 35098.596 -102471.39 792633.40
 101964.91 -101965.03 786896.62
 158844.42 -100922.66 777549.40
 199097.38 -99410.905 768425.47
 217084.36 -97972.527 763724.93
 -217069.10 -33531.431 769257.21
 -199459.08 -34093.719 773985.59
 -159422.10 -34688.708 783186.62
 -102471.41 -35098.598 792633.39
 -35297.212 -35297.154 798441.12
 35297.151 -35297.195 798441.12
 102471.35 -35098.718 792633.40
 159422.05 -34688.889 783186.63
 199459.04 -34093.942 773985.59
 217069.07 -33531.672 769257.20
 -217069.08 33531.684 769257.20
 -199459.06 34093.954 773985.59
 -159422.07 34688.903 783186.62
 -102471.37 35098.732 792633.39
 -35297.172 35297.211 798441.12
 35297.194 35297.169 798441.12
 102471.39 35098.612 792633.40
 159422.09 34688.721 783186.63
 199459.07 34093.731 773985.59
 217069.09 33531.441 769257.21
 -217084.37 97972.539 763724.92
 -199097.40 99410.917 768425.47
 -158844.44 100922.67 777549.39
 -101964.93 101965.04 786896.62
 -35098.613 102471.41 792633.39
 35098.715 102471.37 792633.39
 101965.02 101964.93 786896.62
 158844.52 100922.50 777549.40
 199097.46 99410.711 768425.48
 217084.42 97972.314 763724.94
 -217202.76 154525.08 754284.40
 -198421.59 156032.23 759132.94
 -157675.45 157675.59 768294.78
 -100922.50 158844.53 777549.40
 -34688.724 159422.10 783186.62
 34688.888 159422.07 783186.62
 100922.65 158844.44 777549.40
 157675.58 157675.44 768294.78
 198421.69 156032.05 759132.95
 217202.84 154524.89 754284.42
 -217979.06 197634.59 743925.87
 -197722.24 197722.37 749541.05
 -156032.05 198421.70 759132.94
 -99410.715 199097.47 768425.47
 -34093.732 199459.08 773985.59
 34093.940 199459.06 773985.59
 99410.905 199097.39 768425.47
 156032.21 198421.59 759132.94
 197722.36 197722.23 749541.05
 217979.16 197634.44 743925.88
 -220863.05 220863.16 736504.57
 -197634.44 217979.17 743925.88
 -154524.89 217202.85 754284.42
 -97972.317 217084.43 763724.93
 -33531.444 217069.10 769257.21
 33531.671 217069.08 769257.20
 97972.526 217084.37 763724.92
 154525.07 217202.76 754284.41
 197634.58 217979.06 743925.87
 220863.15 220863.05 736504.57
 -273703.85 -273703.73 700123.18
 -241902.08 -280161.30 709220.01
 -188227.14 -286837.09 722699.82
 -119375.33 -291795.10 735258.56
 -40909.364 -294398.82 742735.32
 40909.089 -294398.84 742735.33
 119375.08 -291795.17 735258.57
 188226.93 -286837.19 722699.83