# OOMMF OVF 2.0
#
# Segment count: 1
#
# Begin: Segment
# Begin: Header
#
# Title: Oxs_MinDriver::Magnetization
# Desc: Oxs vector field output
# Desc:  MIF source file: /home/ryan/Git/joommf/tools/omfvis/cube_example.mif
# Desc:  Iteration: 5473, State id: 11630
# Desc:  Stage: 36, Stage iteration: 33
# Desc:  Stage simulation time: 0 s
# Desc:  Total simulation time: -2 s
# meshunit: m
# meshtype: rectangular
# xbase: 2.5000000000000001e-09
# ybase: 2.5000000000000001e-09
# zbase: 2.5000000000000001e-09
# xnodes: 10
# ynodes: 10
# znodes: 10
# xstepsize: 5.0000000000000001e-09
# ystepsize: 5.0000000000000001e-09
# zstepsize: 5.0000000000000001e-09
# xmin: 0
# ymin: 0
# zmin: 0
# xmax: 4.9999999999999998e-08
# ymax: 4.9999999999999998e-08
# zmax: 4.9999999999999998e-08
# valuedim: 3
# valuelabels: Magnetization_x Magnetization_y Magnetization_z
# valueunits: A/m A/m A/m
#
# End: Header
#
# Begin: Data Text
 259982.87 259982.89 710505.32
 228384.60 266738.72 718812.17
 176567.25 273526.54 730757.99
 111412.51 278448.61 741656.00
 38074.244 280988.65 748061.31
 -38074.284 280988.65 748061.31
 -111412.55 278448.60 741656.00
 -176567.28 273526.53 730757.99
 -228384.62 266738.70 718812.17
 -259982.89 259982.87 710505.32
 266738.70 228384.62 718812.17
 236912.39 236912.42 726460.62
 184674.51 244738.06 738917.18
 117132.72 250334.79 750741.25
 40130.138 253229.84 757802.23
 -40130.176 253229.84 757802.23
 -117132.75 250334.77 750741.25
 -184674.54 244738.04 738917.18
 -236912.42 236912.39 726460.62
 -266738.72 228384.60 718812.17
 273526.53 176567.28 730757.99
 244738.05 184674.54 738917.18
 192180.21 192180.23 752418.45
 122546.85 197555.24 765476.45
 42101.609 200342.30 773363.06
 -42101.641 200342.29 773363.06
 -122546.87 197555.22 765476.45
 -192180.23 192180.21 752418.45
 -244738.07 184674.51 738917.18
 -273526.54 176567.25 730757.99
 278448.60 111412.55 741656.00
 250334.77 117132.75 750741.25
 197555.22 122546.87 765476.45
 126458.81 126458.83 779754.02
 43535.364 128495.10 788412.13
 -43535.385 128495.09 788412.13
 -126458.83 126458.81 779754.02
 -197555.24 122546.84 765476.45
 -250334.79 117132.72 750741.25
 -278448.61 111412.51 741656.00
 280988.65 38074.284 748061.31
 253229.84 40130.177 757802.23
 200342.29 42101.640 773363.06
 128495.09 43535.385 788412.13
 44283.789 44283.796 797544.91
 -44283.796 44283.788 797544.92
 -128495.10 43535.364 788412.13
 -200342.30 42101.608 773363.06
 -253229.84 40130.138 757802.23
 -280988.65 38074.244 748061.31
 280988.65 -38074.244 748061.31
 253229.84 -40130.138 757802.23
 200342.30 -42101.608 773363.06
 128495.10 -43535.364 788412.13
 44283.796 -44283.789 797544.92
 -44283.788 -44283.796 797544.92
 -128495.09 -43535.385 788412.13
 -200342.29 -42101.640 773363.06
 -253229.84 -40130.176 757802.23
 -280988.65 -38074.284 748061.31
 278448.61 -111412.51 741656.00
 250334.79 -117132.72 750741.25
 197555.24 -122546.85 765476.45
 126458.83 -126458.81 779754.02
 43535.385 -128495.09 788412.13
 -43535.364 -128495.10 788412.13
 -126458.81 -126458.83 779754.02
 -197555.22 -122546.87 765476.45
 -250334.77 -117132.75 750741.25
 -278448.60 -111412.55 741656.00
 273526.54 -176567.25 730757.99
 244738.07 -184674.51 738917.18
 192180.23 -192180.21 752418.45
 122546.87 -197555.22 765476.45
 42101.641 -200342.29 773363.06
 -42101.608 -200342.30 773363.06
 -122546.84 -197555.24 765476.45
 -192180.21 -192180.23 752418.45
 -244738.05 -184674.54 738917.18
 -273526.53 -176567.28 730757.99
 266738.72 -228384.60 718812.17
 236912.42 -236912.39 726460.62
 184674.54 -244738.05 738917.18
 117132.75 -250334.77 750741.25
 40130.176 -253229.84 757802.23
 -40130.138 -253229.84 757802.23
 -117132.72 -250334.79 750741.25
 -184674.51 -244738.06 738917.18
 -236912.39 -236912.42 726460.62
 -266738.70 -228384.62 718812.17
 259982.89 -259982.87 710505.32
 228384.62 -266738.70 718812.17
 176567.28 -273526.53 730757.99
 111412.55 -278448.60 741656.00
 38074.284 -280988.65 748061.31
 -38074.244 -280988.65 748061.31
 -111412.51 -278448.61 741656.00
 -176567.25 -273526.54 730757.99
 -228384.60 -266738.72 718812.17
 -259982.87 -259982.89 710505.32
 207882.13 207882.15 744022.87
 185367.48 205731.04 750542.23
 144315.70 205604.07 759539.30
 91181.597 205940.85 767642.03
 31147.905 206159.24 772352.37
 -31147.943 206159.24 772352.36
 -91181.632 205940.84 767642.03
 -144315.73 205604.06 759539.29
 -185367.50 205731.02 750542.23
 -207882.15 207882.13 744022.87
 205731.02 185367.50 750542.23
 185945.18 185945.20 755545.35
 146094.37 187118.35 763965.42
 92749.911 188128.66 772013.64
 31748.223 188660.07 776787.89
 -31748.258 188660.06 776787.89
 -92749.944 188128.64 772013.64
 -146094.40 187118.34 763965.42
 -185945.20 185945.18 755545.35
 -205731.04 185367.48 750542.23
 205604.06 144315.73 759539.29
 187118.33 146094.40 763965.42
 148015.32 148015.34 772128.83
 94394.662 149386.42 780239.29
 32381.314 150067.33 785131.36
 -32381.342 150067.32 785131.36
 -94394.688 149386.41 780239.29
 -148015.34 148015.31 772128.83
 -187118.35 146094.37 763965.42
 -205604.07 144315.70 759539.30
 205940.84 91181.631 767642.03
 188128.65 92749.944 772013.64
 149386.41 94394.688 780239.29
 95536.683 95536.699 788508.39
 32820.166 96094.866 793529.21
 -32820.185 96094.858 793529.21
 -95536.699 95536.683 788508.39
 -149386.42 94394.662 780239.29
 -188128.66 92749.911 772013.64
 -205940.85 91181.597 767642.03
 206159.24 31147.944 772352.36
 188660.06 31748.256 776787.89
 150067.32 32381.344 785131.36
 96094.858 32820.184 793529.21
 33033.968 33033.974 798634.78
 -33033.973 33033.968 798634.78
 -96094.866 32820.165 793529.21
 -150067.33 32381.314 785131.36
 -188660.07 31748.222 776787.89
 -206159.24 31147.906 772352.37
 206159.24 -31147.906 772352.37
 188660.07 -31748.222 776787.89
 150067.33 -32381.315 785131.36
 96094.866 -32820.165 793529.21
 33033.974 -33033.968 798634.78
 -33033.968 -33033.974 798634.78
 -96094.857 -32820.185 793529.21
 -150067.32 -32381.343 785131.36
 -188660.06 -31748.257 776787.89
 -206159.24 -31147.944 772352.36
 205940.85 -91181.596 767642.03
 188128.66 -92749.912 772013.64
 149386.42 -94394.661 780239.29
 95536.699 -95536.683 788508.39
 32820.185 -96094.858 793529.21
 -32820.165 -96094.866 793529.21
 -95536.683 -95536.699 788508.39
 -149386.41 -94394.688 780239.29
 -188128.65 -92749.944 772013.64
 -205940.84 -91181.631 767642.03
 205604.07 -144315.70 759539.30
 187118.35 -146094.37 763965.42
 148015.34 -148015.32 772128.83
 94394.688 -149386.41 780239.29
 32381.342 -150067.32 785131.36
 -32381.314 -150067.33 785131.36
 -94394.662 -149386.42 780239.29
 -148015.32 -148015.34 772128.83
 -187118.33 -146094.40 763965.42
 -205604.06 -144315.73 759539.29
 205731.04 -185367.48 750542.23
 185945.20 -185945.18 755545.35
 146094.40 -187118.33 763965.42
 92749.944 -188128.65 772013.64
 31748.258 -188660.06 776787.89
 -31748.223 -188660.07 776787.89
 -92749.911 -188128.66 772013.64
 -146094.37 -187118.35 763965.42
 -185945.18 -185945.20 755545.35
 -205731.02 -185367.50 750542.23
 207882.15 -207882.13 744022.87
 185367.50 -205731.02 750542.23
 144315.73 -205604.06 759539.29
 91181.632 -205940.84 767642.03
 31147.943 -206159.24 772352.36
 -31147.905 -206159.24 772352.37
 -91181.597 -205940.85 767642.03
 -144315.70 -205604.07 759539.30
 -185367.48 -205731.04 750542.23
 -207882.13 -207882.15 744022.87
 144482.76 144482.77 773465.88
 128746.80 138108.11 777399.78
 100228.54 133412.55 782403.56
 63257.721 130464.55 786751.21
 21585.625 129016.76 789233.00
 -21585.659 129016.76 789233.00
 -63257.753 130464.54 786751.21
 -100228.57 133412.53 782403.56
 -128746.82 138108.09 777399.78
 -144482.77 144482.76 773465.88
 138108.09 128746.82 777399.78
 124968.08 124968.10 780234.55
 98332.139 121622.36 784562.80
 62397.386 119378.12 788578.11
 21338.102 118251.08 790924.38
 -21338.133 118251.08 790924.37
 -62397.415 119378.11 788578.11
 -98332.165 121622.35 784562.80
 -124968.10 124968.08 780234.55
 -138108.11 128746.80 777399.78
 133412.53 100228.57 782403.56
 121622.35 98332.165 784562.80
 96426.235 96426.256 788291.80
 61485.847 95018.163 791953.94
 21073.181 94274.279 794146.26
 -21073.206 94274.270 794146.26
 -61485.870 95018.152 791953.94
 -96426.256 96426.237 788291.80
 -121622.37 98332.138 784562.80
 -133412.55 100228.54 782403.56
 130464.54 63257.753 786751.21
 119378.10 62397.413 788578.11
 95018.154 61485.871 791953.94
 60756.468 60756.484 795372.43
 20851.761 60350.763 797447.80
 -20851.776 60350.761 797447.80
 -60756.485 60756.468 795372.43
 -95018.164 61485.847 791953.94
 -119378.12 62397.386 788578.11
 -130464.55 63257.721 786751.21
 129016.76 21585.658 789233.00
 118251.08 21338.136 790924.37
 94274.270 21073.203 794146.26
 60350.761 20851.778 797447.80
 20724.675 20724.680 799462.93
 -20724.681 20724.674 799462.93
 -60350.763 20851.762 797447.80
 -94274.279 21073.179 794146.26
 -118251.08 21338.103 790924.38
 -129016.76 21585.624 789233.00
 129016.76 -21585.624 789233.00
 118251.08 -21338.104 790924.37
 94274.278 -21073.178 794146.26
 60350.763 -20851.763 797447.80
 20724.681 -20724.674 799462.93
 -20724.674 -20724.681 799462.93
 -60350.761 -20851.777 797447.80
 -94274.269 -21073.204 794146.26
 -118251.08 -21338.135 790924.37
 -129016.76 -21585.659 789233.00
 130464.55 -63257.721 786751.21
 119378.12 -62397.385 788578.11
 95018.165 -61485.849 791953.94
 60756.484 -60756.467 795372.43
 20851.777 -60350.761 797447.80
 -20851.762 -60350.763 797447.80
 -60756.467 -60756.485 795372.43
 -95018.154 -61485.870 791953.94
 -119378.10 -62397.414 788578.11
 -130464.54 -63257.753 786751.21
 133412.55 -100228.54 782403.56
 121622.37 -98332.140 784562.80
 96426.255 -96426.235 788291.80
 61485.870 -95018.153 791953.94
 21073.205 -94274.270 794146.26
 -21073.180 -94274.279 794146.26
 -61485.847 -95018.163 791953.94
 -96426.235 -96426.257 788291.80
 -121622.35 -98332.164 784562.80
 -133412.53 -100228.57 782403.56
 138108.11 -128746.80 777399.78
 124968.10 -124968.08 780234.55
 98332.165 -121622.35 784562.80
 62397.414 -119378.10 788578.11
 21338.133 -118251.08 790924.37
 -21338.102 -118251.08 790924.38
 -62397.386 -119378.12 788578.11
 -98332.139 -121622.36 784562.80
 -124968.08 -124968.10 780234.55
 -138108.09 -128746.82 777399.78
 144482.77 -144482.76 773465.88
 128746.82 -138108.09 777399.78
 100228.57 -133412.53 782403.56
 63257.753 -130464.54 786751.21
 21585.659 -129016.76 789233.00
 -21585.625 -129016.76 789233.00
 -63257.720 -130464.55 786751.21
 -100228.54 -133412.55 782403.56
 -128746.80 -138108.11 777399.78
 -144482.76 -144482.77 773465.88
 82960.557 82960.573 791350.17
 73541.353 77314.420 792851.91
 57041.613 72538.387 794659.95
 35915.375 69351.765 796178.63
 12240.003 67765.978 797030.71
 -12240.034 67765.977 797030.71
 -35915.404 69351.757 796178.63
 -57041.638 72538.375 794659.95
 -73541.373 77314.406 792851.91
 -82960.573 82960.557 791350.17
 77314.406 73541.373 792851.91
 69688.782 69688.800 793906.13
 54716.646 65924.316 795399.32
 34672.063 63287.772 796738.67
 11846.982 61955.542 797509.35
 -11847.010 61955.536 797509.35
 -34672.089 63287.764 796738.67
 -54716.668 65924.302 795399.32
 -69688.800 69688.780 793906.13
 -77314.420 73541.353 792851.91
 72538.376 57041.639 794659.95
 65924.301 54716.667 795399.32
 52224.389 52224.406 796583.47
 33287.344 50372.805 797718.33
 11404.643 49410.202 798391.24
 -11404.664 49410.201 798391.24
 -33287.365 50372.793 797718.33
 -52224.406 52224.388 796583.47
 -65924.316 54716.646 795399.32
 -72538.387 57041.613 794659.95
 69351.756 35915.403 796178.63
 63287.766 34672.091 796738.67
 50372.792 33287.363 797718.33
 32217.662 32217.674 798701.47
 11057.005 31648.092 799297.28
 -11057.019 31648.086 799297.28
 -32217.673 32217.662 798701.47
 -50372.805 33287.344 797718.33
 -63287.773 34672.064 796738.67
 -69351.764 35915.374 796178.63
 67765.977 12240.036 797030.71
 61955.535 11847.007 797509.35
 49410.201 11404.667 798391.24
 31648.086 11057.018 799297.28
 10869.597 10869.602 799852.30
 -10869.601 10869.597 799852.30
 -31648.093 11057.004 799297.28
 -49410.201 11404.644 798391.24
 -61955.542 11846.980 797509.35
 -67765.979 12240.004 797030.71
 67765.979 -12240.004 797030.71
 61955.541 -11846.979 797509.35
 49410.202 -11404.645 798391.24
 31648.092 -11057.003 799297.28
 10869.601 -10869.598 799852.30
 -10869.598 -10869.601 799852.30
 -31648.085 -11057.019 799297.28
 -49410.202 -11404.666 798391.24
 -61955.535 -11847.007 797509.35
 -67765.978 -12240.035 797030.71
 69351.764 -35915.374 796178.63
 63287.773 -34672.065 796738.67
 50372.805 -33287.343 797718.33
 32217.674 -32217.663 798701.47
 11057.019 -31648.085 799297.28
 -11057.004 -31648.093 799297.28
 -32217.663 -32217.673 798701.47
 -50372.791 -33287.364 797718.33
 -63287.766 -34672.090 796738.67
 -69351.756 -35915.403 796178.63
 72538.387 -57041.613 794659.95
 65924.316 -54716.645 795399.32
 52224.406 -52224.389 796583.47
 33287.364 -50372.792 797718.33
 11404.665 -49410.201 798391.24
 -11404.644 -49410.201 798391.24
 -33287.344 -50372.806 797718.33
 -52224.389 -52224.405 796583.47
 -65924.301 -54716.668 795399.32
 -72538.376 -57041.638 794659.95
 77314.420 -73541.353 792851.91
 69688.800 -69688.781 793906.13
 54716.668 -65924.302 795399.32
 34672.090 -63287.765 796738.67
 11847.009 -61955.535 797509.35
 -11846.981 -61955.542 797509.35
 -34672.063 -63287.772 796738.67
 -54716.646 -65924.317 795399.32
 -69688.781 -69688.799 793906.13
 -77314.406 -73541.373 792851.91
 82960.573 -82960.557 791350.17
 73541.373 -77314.406 792851.91
 57041.639 -72538.375 794659.95
 35915.404 -69351.757 796178.63
 12240.035 -67765.977 797030.71
 -12240.003 -67765.978 797030.71
 -35915.375 -69351.765 796178.63
 -57041.613 -72538.386 794659.95
 -73541.353 -77314.420 792851.91
 -82960.557 -82960.573 791350.17
 26811.508 26811.523 799100.92
 23679.626 24657.271 799269.23
 18313.701 22754.566 799466.60
 11510.912 21461.595 799629.23
 3919.7284 20815.544 799719.54
 -3919.7580 20815.542 799719.54
 -11510.939 21461.588 799629.23
 -18313.725 22754.555 799466.60
 -23679.645 24657.257 799269.23
 -26811.523 26811.508 799100.92
 24657.258 23679.645 799269.23
 22159.519 22159.535 799385.96
 17363.828 20628.144 799545.48
 10990.922 19541.228 799685.78
 3753.5933 18990.715 799765.76
 -3753.6194 18990.713 799765.76
 -10990.946 19541.219 799685.78
 -17363.849 20628.130 799545.48
 -22159.536 22159.519 799385.96
 -24657.271 23679.626 799269.23
 22754.555 18313.724 799466.60
 20628.131 17363.851 799545.48
 16323.178 16323.194 799666.87
 10400.673 15545.841 799781.32
 3563.0054 15142.489 799848.74
 -3563.0256 15142.485 799848.74
 -10400.692 15545.831 799781.32
 -16323.195 16323.178 799666.87
 -20628.144 17363.829 799545.48
 -22754.566 18313.701 799466.60
 21461.589 11510.940 799629.23
 19541.219 10990.944 799685.78
 15545.831 10400.694 799781.32
 9944.9817 9944.9933 799876.36
 3413.7422 9703.8072 799933.86
 -3413.7548 9703.8024 799933.86
 -9944.9941 9944.9823 799876.36
 -15545.841 10400.674 799781.32
 -19541.228 10990.921 799685.78
 -21461.595 11510.912 799629.23
 20815.542 3919.7570 799719.54
 18990.713 3753.6218 799765.76
 15142.484 3563.0235 799848.74
 9703.8033 3413.7560 799933.86
 3333.9405 3333.9442 799986.11
 -3333.9452 3333.9416 799986.11
 -9703.8064 3413.7418 799933.86
 -15142.489 3563.0044 799848.74
 -18990.715 3753.5952 799765.76
 -20815.544 3919.7275 799719.54
 20815.544 -3919.7274 799719.54
 18990.715 -3753.5955 799765.76
 15142.488 -3563.0035 799848.74
 9703.8068 -3413.7433 799933.86
 3333.9449 -3333.9396 799986.11
 -3333.9402 -3333.9462 799986.11
 -9703.8037 -3413.7544 799933.86
 -15142.483 -3563.0246 799848.74
 -18990.714 -3753.6213 799765.76
 -20815.541 -3919.7571 799719.54
 21461.595 -11510.912 799629.23
 19541.228 -10990.920 799685.78
 15545.841 -10400.675 799781.32
 9944.9935 -9944.9810 799876.36
 3413.7555 -9703.8039 799933.86
 -3413.7429 -9703.8056 799933.86
 -9944.9810 -9944.9948 799876.36
 -15545.832 -10400.692 799781.32
 -19541.218 -10990.945 799685.78
 -21461.589 -11510.940 799629.23
 22754.566 -18313.701 799466.60
 20628.144 -17363.829 799545.48
 16323.194 -16323.177 799666.87
 10400.693 -15545.831 799781.32
 3563.0246 -15142.484 799848.74
 -3563.0043 -15142.490 799848.74
 -10400.674 -15545.840 799781.32
 -16323.177 -16323.195 799666.87
 -20628.131 -17363.850 799545.48
 -22754.555 -18313.725 799466.60
 24657.271 -23679.626 799269.23
 22159.536 -22159.518 799385.96
 17363.850 -20628.131 799545.48
 10990.945 -19541.219 799685.78
 3753.6205 -18990.713 799765.76
 -3753.5943 -18990.714 799765.76
 -10990.921 -19541.229 799685.78
 -17363.828 -20628.143 799545.48
 -22159.519 -22159.536 799385.96
 -24657.257 -23679.645 799269.23
 26811.523 -26811.508 799100.92
 23679.645 -24657.258 799269.23
 18313.725 -22754.555 799466.60
 11510.940 -21461.589 799629.23
 3919.7576 -20815.541 799719.54
 -3919.7280 -20815.545 799719.54
 -11510.912 -21461.595 799629.23
 -18313.701 -22754.566 799466.60
 -23679.626 -24657.271 799269.23
 -26811.508 -26811.523 799100.92
 -26811.523 -26811.508 799100.92
 -23679.645 -24657.258 799269.23
 -18313.725 -22754.555 799466.60
 -11510.939 -21461.589 799629.23
 -3919.7581 -20815.542 799719.54
 3919.7284 -20815.544 799719.54
 11510.912 -21461.595 799629.23
 18313.701 -22754.566 799466.60
 23679.625 -24657.271 799269.23
 26811.508 -26811.523 799100.92
 -24657.271 -23679.626 799269.23
 -22159.536 -22159.518 799385.96
 -17363.849 -20628.131 799545.48
 -10990.947 -19541.219 799685.78
 -3753.6194 -18990.713 799765.76
 3753.5933 -18990.715 799765.76
 10990.922 -19541.228 799685.78
 17363.828 -20628.143 799545.48
 22159.520 -22159.536 799385.96
 24657.257 -23679.645 799269.23
 -22754.566 -18313.701 799466.60
 -20628.143 -17363.829 799545.48
 -16323.195 -16323.177 799666.87
 -10400.691 -15545.831 799781.32
 -3563.0258 -15142.484 799848.74
 3563.0054 -15142.490 799848.74
 10400.673 -15545.840 799781.32
 16323.179 -16323.195 799666.87
 20628.130 -17363.850 799545.48
 22754.555 -18313.725 799466.60
 -21461.595 -11510.912 799629.23
 -19541.228 -10990.921 799685.78
 -15545.840 -10400.674 799781.32
 -9944.9947 -9944.9812 799876.36
 -3413.7546 -9703.8041 799933.86
 3413.7422 -9703.8051 799933.86
 9944.9818 -9944.9956 799876.36
 15545.831 -10400.692 799781.32
 19541.219 -10990.946 799685.78
 21461.588 -11510.940 799629.23
 -20815.544 -3919.7277 799719.54
 -18990.715 -3753.5947 799765.76
 -15142.489 -3563.0045 799848.74
 -9703.8060 -3413.7426 799933.86
 -3333.9454 -3333.9397 799986.11
 3333.9405 -3333.9468 799986.11
 9703.8033 -3413.7532 799933.86
 15142.484 -3563.0259 799848.74
 18990.713 -3753.6202 799765.76
 20815.542 -3919.7575 799719.54
 -20815.542 3919.7574 799719.54
 -18990.713 3753.6207 799765.76
 -15142.484 3563.0250 799848.74
 -9703.8038 3413.7549 799933.86
 -3333.9401 3333.9447 799986.11
 3333.9450 3333.9418 799986.11
 9703.8066 3413.7409 799933.86
 15142.489 3563.0056 799848.74
 18990.715 3753.5942 799765.76
 20815.544 3919.7279 799719.54
 -21461.588 11510.940 799629.23
 -19541.219 10990.945 799685.78
 -15545.831 10400.693 799781.32
 -9944.9812 9944.9942 799876.36
 -3413.7430 9703.8067 799933.86
 3413.7553 9703.8024 799933.86
 9944.9939 9944.9828 799876.36
 15545.841 10400.673 799781.32
 19541.228 10990.921 799685.78
 21461.595 11510.912 799629.23
 -22754.555 18313.725 799466.60
 -20628.130 17363.850 799545.48
 -16323.178 16323.194 799666.87
 -10400.674 15545.841 799781.32
 -3563.0044 15142.489 799848.74
 3563.0247 15142.485 799848.74
 10400.692 15545.830 799781.32
 16323.195 16323.178 799666.87
 20628.143 17363.828 799545.48
 22754.566 18313.701 799466.60
 -24657.257 23679.645 799269.23
 -22159.519 22159.535 799385.96
 -17363.828 20628.144 799545.48
 -10990.922 19541.228 799685.78
 -3753.5943 18990.715 799765.76
 3753.6203 18990.713 799765.76
 10990.946 19541.219 799685.78
 17363.849 20628.130 799545.48
 22159.536 22159.519 799385.96
 24657.271 23679.626 799269.23
 -26811.509 26811.523 799100.92
 -23679.625 24657.271 799269.23
 -18313.701 22754.565 799466.60
 -11510.912 21461.595 799629.23
 -3919.7280 20815.544 799719.54
 3919.7576 20815.542 799719.54
 11510.940 21461.588 799629.23
 18313.725 22754.555 799466.60
 23679.645 24657.257 799269.23
 26811.523 26811.508 799100.92
 -82960.573 -82960.557 791350.17
 -73541.373 -77314.405 792851.91
 -57041.638 -72538.376 794659.95
 -35915.404 -69351.756 796178.63
 -12240.034 -67765.977 797030.71
 12240.003 -67765.979 797030.71
 35915.375 -69351.765 796178.63
 57041.612 -72538.387 794659.95
 73541.353 -77314.420 792851.91
 82960.557 -82960.573 791350.17
 -77314.420 -73541.353 792851.91
 -69688.798 -69688.782 793906.13
 -54716.669 -65924.301 795399.32
 -34672.088 -63287.765 796738.67
 -11847.010 -61955.535 797509.35
 11846.982 -61955.542 797509.35
 34672.062 -63287.772 796738.67
 54716.647 -65924.316 795399.32
 69688.780 -69688.799 793906.13
 77314.406 -73541.373 792851.91
 -72538.386 -57041.613 794659.95
 -65924.318 -54716.645 795399.32
 -52224.404 -52224.389 796583.47
 -33287.366 -50372.792 797718.33
 -11404.664 -49410.201 798391.24
 11404.643 -49410.201 798391.24
 33287.345 -50372.807 797718.33
 52224.387 -52224.405 796583.47
 65924.303 -54716.668 795399.32
 72538.375 -57041.638 794659.95
 -69351.765 -35915.375 796178.63
 -63287.771 -34672.063 796738.67
 -50372.807 -33287.344 797718.33
 -32217.672 -32217.662 798701.47
 -11057.020 -31648.085 799297.28
 11057.005 -31648.094 799297.28
 32217.661 -32217.671 798701.47
 50372.793 -33287.366 797718.33
 63287.764 -34672.089 796738.67
 69351.757 -35915.404 796178.63
 -67765.978 -12240.003 797030.71
 -61955.542 -11846.982 797509.35
 -49410.201 -11404.642 798391.24
 -31648.093 -11057.005 799297.28
 -10869.601 -10869.597 799852.30
 10869.597 -10869.599 799852.30
 31648.086 -11057.022 799297.28
 49410.201 -11404.663 798391.24
 61955.536 -11847.010 797509.35
 67765.977 -12240.034 797030.71
 -67765.977 12240.035 797030.71
 -61955.536 11847.009 797509.35
 -49410.201 11404.664 798391.24
 -31648.085 11057.020 799297.28
 -10869.598 10869.601 799852.30
 10869.601 10869.596 799852.30
 31648.093 11057.007 799297.28
 49410.202 11404.641 798391.24
 61955.541 11846.982 797509.35
 67765.979 12240.003 797030.71
 -69351.757 35915.404 796178.63
 -63287.764 34672.089 796738.67
 -50372.793 33287.365 797718.33
 -32217.662 32217.673 798701.47
 -11057.004 31648.093 799297.28
 11057.019 31648.087 799297.28
 32217.673 32217.660 798701.47
 50372.806 33287.345 797718.33
 63287.772 34672.062 796738.67
 69351.765 35915.375 796178.63
 -72538.375 57041.639 794659.95
 -65924.303 54716.667 795399.32
 -52224.387 52224.406 796583.47
 -33287.344 50372.806 797718.33
 -11404.643 49410.202 798391.24
 11404.665 49410.201 798391.24
 33287.365 50372.793 797718.33
 52224.404 52224.388 796583.47
 65924.318 54716.646 795399.32
 72538.386 57041.613 794659.95
 -77314.406 73541.373 792851.91
 -69688.780 69688.800 793906.13
 -54716.647 65924.316 795399.32
 -34672.063 63287.773 796738.67
 -11846.981 61955.541 797509.35
 11847.009 61955.536 797509.35
 34672.089 63287.765 796738.67
 54716.669 65924.302 795399.32
 69688.798 69688.781 793906.13
 77314.420 73541.353 792851.91
 -82960.557 82960.573 791350.17
 -73541.354 77314.420 792851.91
 -57041.613 72538.387 794659.95
 -35915.375 69351.764 796178.63
 -12240.003 67765.979 797030.71
 12240.034 67765.977 797030.71
 35915.404 69351.757 796178.63
 57041.638 72538.375 794659.95
 73541.373 77314.406 792851.91
 82960.572 82960.557 791350.17
 -144482.77 -144482.76 773465.88
 -128746.82 -138108.09 777399.78
 -100228.57 -133412.53 782403.56
 -63257.752 -130464.54 786751.21
 -21585.659 -129016.76 789233.00
 21585.625 -129016.76 789233.00
 63257.720 -130464.55 786751.21
 100228.54 -133412.55 782403.56
 128746.80 -138108.11 777399.78
 144482.76 -144482.77 773465.88
 -138108.11 -128746.80 777399.78
 -124968.10 -124968.08 780234.55
 -98332.163 -121622.35 784562.80
 -62397.416 -119378.10 788578.11
 -21338.133 -118251.08 790924.37
 21338.102 -118251.08 790924.38
 62397.387 -119378.12 788578.11
 98332.137 -121622.36 784562.80
 124968.08 -124968.10 780234.55
 138108.09 -128746.82 777399.78
 -133412.55 -100228.54 782403.56
 -121622.36 -98332.139 784562.80
 -96426.258 -96426.236 788291.80
 -61485.869 -95018.153 791953.94
 -21073.206 -94274.270 794146.26
 21073.181 -94274.279 794146.26
 61485.846 -95018.163 791953.94
 96426.237 -96426.257 788291.80
 121622.35 -98332.163 784562.80
 133412.54 -100228.57 782403.56
 -130464.55 -63257.720 786751.21
 -119378.12 -62397.387 788578.11
 -95018.162 -61485.846 791953.94
 -60756.486 -60756.469 795372.43
 -20851.776 -60350.761 797447.80
 20851.761 -60350.762 797447.80
 60756.469 -60756.487 795372.43
 95018.152 -61485.868 791953.94
 119378.11 -62397.416 788578.11
 130464.54 -63257.752 786751.21
 -129016.77 -21585.625 789233.00
 -118251.08 -21338.101 790924.38
 -94274.279 -21073.182 794146.26
 -60350.762 -20851.760 797447.80
 -20724.681 -20724.675 799462.93
 20724.674 -20724.682 799462.93
 60350.760 -20851.774 797447.80
 94274.271 -21073.208 794146.26
 118251.08 -21338.132 790924.37
 129016.76 -21585.660 789233.00
 -129016.76 21585.659 789233.00
 -118251.08 21338.133 790924.37
 -94274.270 21073.207 794146.26
 -60350.761 20851.775 797447.80
 -20724.674 20724.681 799462.93
 20724.681 20724.675 799462.93
 60350.763 20851.759 797447.80
 94274.279 21073.183 794146.26
 118251.08 21338.101 790924.38
 129016.76 21585.625 789233.00
 -130464.54 63257.753 786751.21
 -119378.11 62397.415 788578.11
 -95018.153 61485.869 791953.94
 -60756.468 60756.486 795372.43
 -20851.762 60350.762 797447.80
 20851.776 60350.760 797447.80
 60756.485 60756.469 795372.43
 95018.163 61485.846 791953.94
 119378.12 62397.387 788578.11
 130464.55 63257.720 786751.21
 -133412.54 100228.57 782403.56
 -121622.35 98332.165 784562.80
 -96426.237 96426.256 788291.80
 -61485.847 95018.164 791953.94
 -21073.181 94274.279 794146.26
 21073.206 94274.270 794146.26
 61485.869 95018.153 791953.94
 96426.258 96426.237 788291.80
 121622.36 98332.138 784562.80
 133412.55 100228.54 782403.56
 -138108.09 128746.82 777399.78
 -124968.08 124968.10 780234.55
 -98332.138 121622.37 784562.80
 -62397.387 119378.12 788578.11
 -21338.102 118251.08 790924.38
 21338.133 118251.08 790924.37
 62397.416 119378.10 788578.11
 98332.163 121622.35 784562.80
 124968.10 124968.08 780234.55
 138108.11 128746.80 777399.78
 -144482.76 144482.77 773465.88
 -128746.80 138108.11 777399.78
 -100228.54 133412.55 782403.56
 -63257.720 130464.55 786751.21
 -21585.625 129016.76 789233.00
 21585.659 129016.76 789233.00
 63257.752 130464.54 786751.21
 100228.57 133412.53 782403.56
 128746.82 138108.09 777399.78
 144482.77 144482.76 773465.88
 -207882.15 -207882.13 744022.87
 -185367.50 -205731.02 750542.23
 -144315.73 -205604.06 759539.29
 -91181.632 -205940.84 767642.03
 -31147.943 -206159.24 772352.36
 31147.905 -206159.24 772352.37
 91181.597 -205940.85 767642.03
 144315.70 -205604.07 759539.30
 185367.48 -205731.04 750542.23
 207882.13 -207882.15 744022.87
 -205731.04 -185367.48 750542.23
 -185945.20 -185945.18 755545.35
 -146094.40 -187118.33 763965.42
 -92749.943 -188128.65 772013.64
 -31748.258 -188660.06 776787.89
 31748.223 -188660.07 776787.89
 92749.910 -188128.66 772013.64
 146094.37 -187118.35 763965.42
 185945.18 -185945.20 755545.35
 205731.02 -185367.50 750542.23
 -205604.07 -144315.70 759539.30
 -187118.35 -146094.37 763965.42
 -148015.34 -148015.31 772128.83
 -94394.689 -149386.41 780239.29
 -32381.342 -150067.32 785131.36
 32381.313 -150067.33 785131.36
 94394.663 -149386.42 780239.29
 148015.31 -148015.34 772128.83
 187118.34 -146094.40 763965.42
 205604.06 -144315.73 759539.29
 -205940.85 -91181.597 767642.03
 -188128.66 -92749.910 772013.64
 -149386.42 -94394.663 780239.29
 -95536.698 -95536.682 788508.39
 -32820.186 -96094.858 793529.21
 32820.166 -96094.867 793529.21
 95536.682 -95536.697 788508.39
 149386.41 -94394.690 780239.29
 188128.64 -92749.942 772013.64
 205940.84 -91181.632 767642.03
 -206159.24 -31147.905 772352.37
 -188660.07 -31748.224 776787.89
 -150067.33 -32381.313 785131.36
 -96094.867 -32820.167 793529.21
 -33033.973 -33033.968 798634.78
 33033.968 -33033.973 798634.78
 96094.858 -32820.187 793529.21
 150067.32 -32381.340 785131.36
 188660.06 -31748.259 776787.89
 206159.24 -31147.943 772352.36
 -206159.24 31147.943 772352.36
 -188660.06 31748.259 776787.89
 -150067.32 32381.341 785131.36
 -96094.858 32820.186 793529.21
 -33033.968 33033.973 798634.78
 33033.974 33033.968 798634.78
 96094.866 32820.167 793529.21
 150067.33 32381.312 785131.36
 188660.07 31748.225 776787.89
 206159.24 31147.905 772352.37
 -205940.84 91181.632 767642.03
 -188128.65 92749.943 772013.64
 -149386.41 94394.689 780239.29
 -95536.682 95536.698 788508.39
 -32820.166 96094.867 793529.21
 32820.185 96094.858 793529.21
 95536.698 95536.682 788508.39
 149386.42 94394.663 780239.29
 188128.66 92749.910 772013.64
 205940.85 91181.597 767642.03
 -205604.06 144315.73 759539.29
 -187118.34 146094.40 763965.42
 -148015.31 148015.34 772128.83
 -94394.663 149386.42 780239.29
 -32381.314 150067.33 785131.36
 32381.342 150067.32 785131.36
 94394.689 149386.41 780239.29
 148015.34 148015.31 772128.83
 187118.35 146094.37 763965.42
 205604.07 144315.70 759539.30
 -205731.02 185367.50 750542.23
 -185945.18 185945.20 755545.35
 -146094.37 187118.35 763965.42
 -92749.910 188128.66 772013.64
 -31748.224 188660.07 776787.89
 31748.258 188660.06 776787.89
 92749.943 188128.65 772013.64
 146094.40 187118.33 763965.42
 185945.20 185945.18 755545.35
 205731.04 185367.48 750542.23
 -207882.13 207882.15 744022.87
 -185367.48 205731.04 750542.23
 -144315.70 205604.08 759539.30
 -91181.597 205940.85 767642.03
 -31147.905 206159.24 772352.37
 31147.943 206159.24 772352.36
 91181.632 205940.84 767642.03
 144315.73 205604.06 759539.29
 185367.50 205731.02 750542.23
 207882.15 207882.13 744022.87
 -259982.89 -259982.87 710505.32
 -228384.62 -266738.70 718812.17
 -176567.28 -273526.53 730757.99
 -111412.55 -278448.60 741656.00
 -38074.284 -280988.65 748061.31
 38074.244 -280988.65 748061.31
 111412.51 -278448.61 741656.00
 176567.25 -273526.54 730757.99