# OOMMF OVF 2.0
#
# Segment count: 1
#
# Begin: Segment
# Begin: Header
#
# Title: Oxs_MinDriver::Magnetization
# Desc: Oxs vector field output
# Desc:  MIF source file: /home/ryan/Git/joommf/tools/omfvis/cube_example.mif
# Desc:  Iteration: 5300, State id: 11274
# Desc:  Stage: 31, Stage iteration: 34
# Desc:  Stage simulation time: 0 s
# Desc:  Total simulation time: -2 s
# meshunit: m
# meshtype: rectangular
# xbase: 2.5000000000000001e-09
# ybase: 2.5000000000000001e-09
# zbase: 2.5000000000000001e-09
# xnodes: 10
# ynodes: 10
# znodes: 10
# xstepsize: 5.0000000000000001e-09
# ystepsize: 5.0000000000000001e-09
# zstepsize: 5.0000000000000001e-09
# xmin: 0
# ymin: 0
# zmin: 0
# xmax: 4.9999999999999998e-08
# ymax: 4.9999999999999998e-08
# zmax: 4.9999999999999998e-08
# valuedim: 3
# valuelabels: Magnetization_x Magnetization_y Magnetization_z
# valueunits: A/m A/m A/m
#
# End: Header
#
# Begin: Data Text
 269659.29 269659.37 703255.07
 237909.09 276204.60 712116.76
 184773.09 282909.95 725135.07
 117010.52 287851.97 737190.47
 40066.047 290432.83 744340.97
 -40066.217 290432.81 744340.97
 -117010.67 287851.93 737190.46
 -184773.22 282909.89 725135.06
 -237909.19 276204.52 712116.76
 -269659.37 269659.29 703255.07
 276204.52 237909.19 712116.76
 246442.69 246442.78 720091.63
 193034.88 254335.89 733519.45
 122901.04 260056.65 746502.43
 42193.795 263049.60 754337.19
 -42193.955 263049.58 754337.19
 -122901.19 260056.59 746502.42
 -193035.01 254335.80 733519.45
 -246442.78 246442.68 720091.63
 -276204.60 237909.08 712116.77
 282909.89 184773.22 725135.06
 254335.80 193035.01 733519.45
 200729.58 200729.68 747940.66
 128509.85 206304.25 762183.56
 44246.795 209225.48 770887.10
 -44246.927 209225.46 770887.10
 -128509.97 206304.17 762183.56
 -200729.68 200729.57 747940.66
 -254335.89 193034.88 733519.46
 -282909.95 184773.08 725135.07
 287851.93 117010.67 737190.46
 260056.60 122901.19 746502.42
 206304.18 128509.97 762183.56
 132607.11 132607.20 777708.61
 45756.031 134761.61 787239.29
 -45756.116 134761.58 787239.29
 -132607.19 132607.11 777708.61
 -206304.24 128509.84 762183.56
 -260056.65 122901.04 746502.43
 -287851.97 117010.51 737190.47
 290432.82 40066.219 744340.97
 263049.58 42193.957 754337.18
 209225.46 44246.929 770887.10
 134761.58 45756.118 787239.29
 46551.757 46551.784 797286.56
 -46551.781 46551.751 797286.56
 -134761.60 45756.025 787239.29
 -209225.48 44246.789 770887.10
 -263049.60 42193.790 754337.19
 -290432.83 40066.043 744340.97
 290432.83 -40066.046 744340.97
 263049.60 -42193.793 754337.19
 209225.49 -44246.793 770887.10
 134761.61 -45756.028 787239.29
 46551.790 -46551.754 797286.56
 -46551.748 -46551.788 797286.56
 -134761.57 -45756.122 787239.29
 -209225.45 -44246.932 770887.10
 -263049.57 -42193.960 754337.19
 -290432.81 -40066.221 744340.97
 287851.97 -117010.51 737190.46
 260056.65 -122901.04 746502.42
 206304.25 -128509.85 762183.56
 132607.20 -132607.11 777708.61
 45756.125 -134761.58 787239.29
 -45756.023 -134761.61 787239.29
 -132607.11 -132607.20 777708.61
 -206304.17 -128509.97 762183.56
 -260056.59 -122901.19 746502.42
 -287851.92 -117010.67 737190.46
 282909.96 -184773.09 725135.07
 254335.89 -193034.88 733519.45
 200729.68 -200729.57 747940.66
 128509.98 -206304.18 762183.56
 44246.934 -209225.46 770887.10
 -44246.787 -209225.48 770887.10
 -128509.84 -206304.25 762183.56
 -200729.57 -200729.68 747940.66
 -254335.80 -193035.01 733519.45
 -282909.89 -184773.22 725135.06
 276204.60 -237909.08 712116.76
 246442.79 -246442.68 720091.63
 193035.01 -254335.80 733519.45
 122901.20 -260056.60 746502.42
 42193.962 -263049.58 754337.18
 -42193.789 -263049.60 754337.19
 -122901.04 -260056.65 746502.43
 -193034.88 -254335.89 733519.46
 -246442.68 -246442.79 720091.63
 -276204.52 -237909.19 712116.76
 269659.37 -269659.29 703255.07
 237909.19 -276204.52 712116.76
 184773.22 -282909.89 725135.06
 117010.68 -287851.93 737190.46
 40066.223 -290432.82 744340.97
 -40066.041 -290432.83 744340.97
 -117010.51 -287851.97 737190.47
 -184773.08 -282909.95 725135.07
 -237909.08 -276204.60 712116.77
 -269659.29 -269659.37 703255.07
 217014.37 217014.45 738789.21
 193992.85 214347.33 745936.99
 151488.99 213762.93 755881.27
 95949.959 213778.59 764913.28
 32821.002 213831.89 770193.94
 -32821.162 213831.87 770193.94
 -95950.107 213778.54 764913.27
 -151489.11 213762.87 755881.26
 -193992.94 214347.26 745936.99
 -217014.45 217014.37 738789.21
 214347.26 193992.95 745936.99
 194226.99 194227.08 751366.57
 153078.42 195067.00 760602.30
 97428.417 195841.21 769515.38
 33395.172 196252.45 774835.30
 -33395.319 196252.43 774835.30
 -97428.551 195841.16 769515.38
 -153078.54 195066.92 760602.30
 -194227.08 194226.99 751366.57
 -214347.33 193992.84 745936.99
 213762.87 151489.12 755881.26
 195066.93 153078.54 760602.30
 154804.82 154804.92 769461.44
 98980.417 156033.43 778367.81
 34001.797 156641.09 783777.68
 -34001.915 156641.07 783777.68
 -98980.527 156033.36 778367.81
 -154804.92 154804.82 769461.44
 -195067.00 153078.42 760602.30
 -213762.93 151488.99 755881.27
 213778.55 95950.109 764913.27
 195841.16 97428.553 769515.38
 156033.37 98980.529 778367.81
 100052.31 100052.38 787387.49
 34420.289 100573.82 792906.14
 -34420.364 100573.79 792906.14
 -100052.38 100052.31 787387.49
 -156033.43 98980.412 778367.81
 -195841.21 97428.414 769515.38
 -213778.59 95949.955 764913.28
 213831.87 32821.163 770193.94
 196252.43 33395.321 774835.30
 156641.07 34001.916 783777.67
 100573.80 34420.366 792906.14
 34623.281 34623.305 798500.13
 -34623.303 34623.276 798500.13
 -100573.82 34420.285 792906.14
 -156641.09 34001.792 783777.68
 -196252.45 33395.169 774835.30
 -213831.88 32820.998 770193.94
 213831.89 -32821.000 770193.94
 196252.45 -33395.171 774835.30
 156641.10 -34001.795 783777.68
 100573.83 -34420.287 792906.14
 34623.310 -34623.280 798500.13
 -34623.275 -34623.307 798500.13
 -100573.79 -34420.370 792906.14
 -156641.07 -34001.918 783777.68
 -196252.43 -33395.324 774835.30
 -213831.87 -32821.165 770193.94
 213778.59 -95949.958 764913.28
 195841.21 -97428.416 769515.38
 156033.43 -98980.415 778367.81
 100052.39 -100052.31 787387.49
 34420.370 -100573.80 792906.14
 -34420.282 -100573.82 792906.14
 -100052.31 -100052.38 787387.49
 -156033.36 -98980.531 778367.81
 -195841.16 -97428.555 769515.38
 -213778.54 -95950.110 764913.27
 213762.93 -151488.99 755881.27
 195067.00 -153078.42 760602.30
 154804.92 -154804.82 769461.44
 98980.532 -156033.36 778367.81
 34001.922 -156641.07 783777.67
 -34001.792 -156641.09 783777.68
 -98980.410 -156033.43 778367.81
 -154804.82 -154804.92 769461.44
 -195066.92 -153078.54 760602.30
 -213762.86 -151489.12 755881.26
 214347.34 -193992.85 745936.99
 194227.08 -194226.99 751366.57
 153078.54 -195066.92 760602.30
 97428.558 -195841.16 769515.38
 33395.324 -196252.43 774835.30
 -33395.166 -196252.45 774835.30
 -97428.413 -195841.21 769515.38
 -153078.42 -195067.00 760602.30
 -194226.98 -194227.08 751366.57
 -214347.26 -193992.95 745936.99
 217014.45 -217014.37 738789.21
 193992.95 -214347.26 745936.99
 151489.12 -213762.87 755881.26
 95950.112 -213778.55 764913.27
 32821.167 -213831.87 770193.94
 -32820.997 -213831.89 770193.94
 -95949.954 -213778.59 764913.28
 -151488.99 -213762.93 755881.27
 -193992.84 -214347.34 745936.99
 -217014.37 -217014.45 738789.21
 151748.41 151748.48 770678.16
 135366.28 144702.18 775072.42
 105531.14 139323.68 780674.13
 66683.204 135854.20 785555.21
 22769.208 134125.97 788347.50
 -22769.355 134125.96 788347.50
 -66683.339 135854.17 785555.20
 -105531.26 139323.63 780674.12
 -135366.37 144702.11 775072.41
 -151748.48 151748.41 770678.16
 144702.11 135366.38 775072.41
 131071.72 131071.81 778229.01
 103280.94 127159.32 783047.61
 65613.906 124474.56 787528.35
 22452.048 123109.98 790151.78
 -22452.178 123109.96 790151.78
 -65614.029 124474.51 787528.35
 -103281.04 127159.25 783047.60
 -131071.81 131071.72 778229.01
 -144702.17 135366.28 775072.42
 139323.63 105531.26 780674.12
 127159.26 103281.04 783047.60
 100968.60 100968.68 787153.52
 64459.651 99236.375 791199.78
 22106.323 98315.718 793627.95
 -22106.427 98315.699 793627.95
 -64459.745 99236.319 791199.78
 -100968.68 100968.59 787153.52
 -127159.32 103280.93 783047.61
 -139323.68 105531.14 780674.13
 135854.17 66683.340 785555.20
 124474.52 65614.031 787528.34
 99236.322 64459.747 791199.78
 63533.502 63533.564 794938.35
 21818.978 63019.456 797215.45
 -21819.043 63019.434 797215.45
 -63533.563 63533.499 794938.35
 -99236.372 64459.648 791199.78
 -124474.56 65613.904 787528.35
 -135854.20 66683.201 785555.21
 134125.96 22769.357 788347.50
 123109.96 22452.179 790151.78
 98315.701 22106.429 793627.95
 63019.437 21819.044 797215.45
 21655.411 21655.432 799413.59
 -21655.431 21655.408 799413.59
 -63019.454 21818.974 797215.45
 -98315.718 22106.322 793627.95
 -123109.97 22452.043 790151.78
 -134125.97 22769.206 788347.50
 134125.98 -22769.208 788347.50
 123109.98 -22452.046 790151.78
 98315.722 -22106.323 793627.95
 63019.460 -21818.977 797215.45
 21655.435 -21655.410 799413.59
 -21655.406 -21655.434 799413.59
 -63019.433 -21819.045 797215.45
 -98315.697 -22106.432 793627.95
 -123109.96 -22452.180 790151.78
 -134125.96 -22769.358 788347.50
 135854.20 -66683.203 785555.21
 124474.56 -65613.906 787528.35
 99236.377 -64459.650 791199.78
 63533.567 -63533.500 794938.35
 21819.048 -63019.437 797215.45
 -21818.975 -63019.457 797215.45
 -63533.497 -63533.567 794938.35
 -99236.318 -64459.747 791199.78
 -124474.51 -65614.033 787528.35
 -135854.16 -66683.341 785555.20
 139323.69 -105531.14 780674.13
 127159.32 -103280.94 783047.61
 100968.69 -100968.60 787153.52
 64459.750 -99236.322 791199.78
 22106.431 -98315.700 793627.95
 -22106.318 -98315.721 793627.95
 -64459.648 -99236.375 791199.78
 -100968.59 -100968.68 787153.52
 -127159.25 -103281.04 783047.60
 -139323.63 -105531.26 780674.12
 144702.18 -135366.28 775072.42
 131071.81 -131071.72 778229.01
 103281.04 -127159.26 783047.60
 65614.033 -124474.51 787528.35
 22452.183 -123109.96 790151.78
 -22452.045 -123109.98 790151.78
 -65613.902 -124474.56 787528.35
 -103280.93 -127159.32 783047.61
 -131071.72 -131071.81 778229.01
 -144702.11 -135366.38 775072.41
 151748.48 -151748.41 770678.15
 135366.38 -144702.11 775072.41
 105531.26 -139323.63 780674.12
 66683.343 -135854.17 785555.20
 22769.359 -134125.96 788347.50
 -22769.204 -134125.98 788347.50
 -66683.201 -135854.20 785555.21
 -105531.14 -139323.68 780674.13
 -135366.28 -144702.18 775072.42
 -151748.41 -151748.48 770678.16
 87489.288 87489.356 790374.11
 77566.527 81299.281 792069.35
 60178.979 75951.878 794109.44
 37899.531 72326.227 795821.93
 12917.804 70505.087 796782.38
 -12917.939 70505.075 796782.38
 -37899.657 72326.195 795821.93
 -60179.086 75951.828 794109.44
 -77566.614 81299.217 792069.35
 -87489.355 87489.287 790374.11
 81299.219 77566.615 792069.35
 73289.302 73289.379 793257.43
 57557.865 69044.540 794933.92
 36480.123 66032.241 796435.15
 12466.062 64497.902 797298.32
 -12466.182 64497.888 797298.32
 -36480.232 66032.201 796435.15
 -57557.962 69044.476 794933.92
 -73289.377 73289.301 793257.43
 -81299.281 77566.525 792069.35
 75951.829 60179.087 794109.44
 69044.478 57557.963 794933.92
 54716.416 54716.491 796248.84
 34885.207 52585.733 797507.22
 11953.554 51471.670 798252.95
 -11953.645 51471.653 798252.95
 -34885.295 52585.683 797507.22
 -54716.489 54716.414 796248.84
 -69044.540 57557.863 794933.92
 -75951.876 60178.977 794109.44
 72326.197 37899.658 795821.93
 66032.202 36480.233 796435.15
 52585.685 34885.295 797507.22
 33645.389 33645.444 798583.73
 11548.867 32982.882 799236.36
 -11548.925 32982.862 799236.36
 -33645.442 33645.387 798583.73
 -52585.733 34885.207 797507.22
 -66032.239 36480.120 796435.15
 -72326.227 37899.530 795821.93
 70505.077 12917.939 796782.38
 64497.890 12466.183 797298.32
 51471.655 11953.646 798252.95
 32982.864 11548.926 799236.36
 11330.186 11330.205 799839.52
 -11330.204 11330.185 799839.52
 -32982.882 11548.866 799236.36
 -51471.669 11953.550 798252.95
 -64497.902 12466.063 797298.32
 -70505.086 12917.801 796782.38
 70505.088 -12917.803 796782.38
 64497.904 -12466.062 797298.32
 51471.672 -11953.553 798252.95
 32982.883 -11548.867 799236.36
 11330.208 -11330.186 799839.52
 -11330.185 -11330.207 799839.52
 -32982.861 -11548.928 799236.36
 -51471.653 -11953.645 798252.95
 -64497.888 -12466.186 797298.32
 -70505.075 -12917.939 796782.38
 72326.229 -37899.531 795821.93
 66032.242 -36480.122 796435.15
 52585.735 -34885.207 797507.22
 33645.446 -33645.389 798583.73
 11548.927 -32982.863 799236.36
 -11548.864 -32982.883 799236.36
 -33645.388 -33645.443 798583.73
 -52585.683 -34885.297 797507.22
 -66032.200 -36480.232 796435.15
 -72326.195 -37899.659 795821.93
 75951.879 -60178.979 794109.44
 69044.541 -57557.864 794933.92
 54716.492 -54716.416 796248.84
 34885.296 -52585.684 797507.22
 11953.648 -51471.655 798252.95
 -11953.552 -51471.670 798252.95
 -34885.204 -52585.734 797507.22
 -54716.415 -54716.491 796248.84
 -69044.475 -57557.963 794933.92
 -75951.827 -60179.087 794109.44
 81299.282 -77566.527 792069.35
 73289.381 -73289.302 793257.43
 57557.964 -69044.477 794933.92
 36480.235 -66032.202 796435.15
 12466.184 -64497.888 797298.32
 -12466.060 -64497.903 797298.32
 -36480.121 -66032.241 796435.15
 -57557.862 -69044.540 794933.92
 -73289.301 -73289.380 793257.43
 -81299.217 -77566.614 792069.35
 87489.357 -87489.288 790374.11
 77566.616 -81299.219 792069.35
 60179.089 -75951.829 794109.44
 37899.659 -72326.196 795821.93
 12917.941 -70505.077 796782.38
 -12917.802 -70505.087 796782.38
 -37899.529 -72326.228 795821.93
 -60178.977 -75951.878 794109.44
 -77566.525 -81299.281 792069.35
 -87489.287 -87489.356 790374.11
 28329.857 28329.923 798996.14
 25012.669 25970.944 799187.01
 19338.426 23851.542 799410.49
 12152.000 22392.413 799594.22
 4137.4434 21657.668 799696.08
 -4137.5722 21657.658 799696.08
 -12152.120 22392.383 799594.21
 -19338.531 23851.495 799410.49
 -25012.752 25970.884 799187.01
 -28329.923 28329.857 798996.14
 25970.885 25012.753 799187.01
 23332.933 23333.008 799319.18
 18277.627 21619.562 799498.92
 11566.429 20390.370 799656.46
 3949.5367 19763.597 799746.09
 -3949.6492 19763.583 799746.09
 -11566.535 20390.333 799656.46
 -18277.718 21619.503 799498.92
 -23333.008 23332.933 799319.18
 -25970.943 25012.668 799187.01
 23851.495 19338.531 799410.49
 21619.504 18277.718 799498.92
 17104.952 17105.024 799634.19
 10896.984 16222.206 799761.27
 3732.5839 15761.837 799836.00
 -3732.6712 15761.822 799836.00
 -10897.065 16222.160 799761.27
 -17105.024 17104.952 799634.19
 -21619.561 18277.626 799498.92
 -23851.542 19338.426 799410.49
 22392.384 12152.120 799594.21
 20390.333 11566.536 799656.46
 16222.161 10897.065 799761.27
 10377.258 10377.310 799865.38
 3561.9043 10101.246 799928.30
 -3561.9585 10101.229 799928.30
 -10377.310 10377.258 799865.38
 -16222.205 10896.982 799761.27
 -20390.370 11566.431 799656.46
 -22392.413 12151.999 799594.22
 21657.658 4137.5728 799696.08
 19763.584 3949.6491 799746.09
 15761.822 3732.6716 799836.00
 10101.229 3561.9591 799928.30
 3470.4190 3470.4372 799984.95
 -3470.4372 3470.4170 799984.95
 -10101.245 3561.9033 799928.30
 -15761.837 3732.5860 799836.00
 -19763.596 3949.5329 799746.09
 -21657.668 4137.4444 799696.08
 21657.669 -4137.4434 799696.08
 19763.596 -3949.5361 799746.09
 15761.838 -3732.5837 799836.00
 10101.248 -3561.9041 799928.30
 3470.4359 -3470.4184 799984.95
 -3470.4160 -3470.4363 799984.95
 -10101.229 -3561.9587 799928.30
 -15761.821 -3732.6743 799836.00
 -19763.583 -3949.6465 799746.09
 -21657.658 -4137.5741 799696.08
 22392.414 -12152.000 799594.22
 20390.370 -11566.429 799656.46
 16222.207 -10896.984 799761.27
 10377.310 -10377.258 799865.38
 3561.9606 -10101.229 799928.30
 -3561.9043 -10101.247 799928.30
 -10377.257 -10377.311 799865.38
 -16222.160 -10897.064 799761.27
 -20390.332 -11566.538 799656.46
 -22392.383 -12152.120 799594.21
 23851.542 -19338.426 799410.49
 21619.563 -18277.627 799498.92
 17105.024 -17104.951 799634.19
 10897.066 -16222.161 799761.27
 3732.6721 -15761.822 799836.00
 -3732.5833 -15761.838 799836.00
 -10896.983 -16222.205 799761.27
 -17104.950 -17105.024 799634.19
 -21619.504 -18277.718 799498.92
 -23851.494 -19338.531 799410.49
 25970.944 -25012.669 799187.01
 23333.008 -23332.933 799319.18
 18277.719 -21619.504 799498.92
 11566.536 -20390.333 799656.46
 3949.6493 -19763.584 799746.09
 -3949.5351 -19763.596 799746.09
 -11566.429 -20390.370 799656.46
 -18277.627 -21619.562 799498.92
 -23332.932 -23333.008 799319.18
 -25970.885 -25012.753 799187.01
 28329.923 -28329.857 798996.14
 25012.753 -25970.885 799187.01
 19338.531 -23851.495 799410.49
 12152.121 -22392.384 799594.21
 4137.5734 -21657.658 799696.08
 -4137.4430 -21657.668 799696.08
 -12152.000 -22392.413 799594.22
 -19338.425 -23851.542 799410.49
 -25012.669 -25970.944 799187.01
 -28329.856 -28329.923 798996.14
 -28329.923 -28329.857 798996.14
 -25012.753 -25970.884 799187.01
 -19338.531 -23851.495 799410.49
 -12152.121 -22392.383 799594.21
 -4137.5731 -21657.657 799696.08
 4137.4429 -21657.668 799696.08
 12152.000 -22392.413 799594.22
 19338.426 -23851.542 799410.49
 25012.668 -25970.943 799187.01
 28329.857 -28329.923 798996.14
 -25970.944 -25012.668 799187.01
 -23333.008 -23332.933 799319.18
 -18277.719 -21619.503 799498.92
 -11566.536 -20390.333 799656.46
 -3949.6495 -19763.584 799746.09
 3949.5355 -19763.595 799746.09
 11566.429 -20390.371 799656.46
 18277.626 -21619.561 799498.92
 23332.932 -23333.008 799319.18
 25970.884 -25012.752 799187.01
 -23851.542 -19338.426 799410.49
 -21619.562 -18277.626 799498.92
 -17105.024 -17104.952 799634.19
 -10897.065 -16222.160 799761.27
 -3732.6723 -15761.821 799836.00
 3732.5837 -15761.838 799836.00
 10896.983 -16222.205 799761.27
 17104.951 -17105.025 799634.19
 21619.503 -18277.717 799498.92
 23851.495 -19338.531 799410.49
 -22392.413 -12152.000 799594.22
 -20390.370 -11566.429 799656.46
 -16222.206 -10896.983 799761.27
 -10377.310 -10377.258 799865.38
 -3561.9591 -10101.228 799928.30
 3561.9030 -10101.246 799928.30
 10377.258 -10377.310 799865.38
 16222.160 -10897.063 799761.27
 20390.332 -11566.538 799656.46
 22392.383 -12152.119 799594.21
 -21657.668 -4137.4431 799696.08
 -19763.596 -3949.5355 799746.09
 -15761.838 -3732.5835 799836.00
 -10101.247 -3561.9035 799928.30
 -3470.4378 -3470.4181 799984.95
 3470.4183 -3470.4359 799984.95
 10101.228 -3561.9583 799928.30
 15761.822 -3732.6740 799836.00
 19763.583 -3949.6461 799746.09
 21657.657 -4137.5739 799696.08
 -21657.658 4137.5731 799696.08
 -19763.584 3949.6496 799746.09
 -15761.822 3732.6720 799836.00
 -10101.230 3561.9595 799928.30
 -3470.4173 3470.4375 799984.95
 3470.4356 3470.4175 799984.95
 10101.247 3561.9034 799928.30
 15761.837 3732.5865 799836.00
 19763.595 3949.5332 799746.09
 21657.668 4137.4447 799696.08
 -22392.384 12152.121 799594.21
 -20390.333 11566.536 799656.46
 -16222.161 10897.065 799761.27
 -10377.258 10377.310 799865.38
 -3561.9044 10101.247 799928.30
 3561.9590 10101.229 799928.30
 10377.310 10377.259 799865.38
 16222.206 10896.982 799761.27
 20390.370 11566.431 799656.46
 22392.413 12151.999 799594.22
 -23851.495 19338.531 799410.49
 -21619.505 18277.718 799498.92
 -17104.951 17105.024 799634.19
 -10896.983 16222.206 799761.27
 -3732.5849 15761.838 799836.00
 3732.6724 15761.823 799836.00
 10897.065 16222.160 799761.27
 17105.023 17104.953 799634.19
 21619.562 18277.626 799498.92
 23851.542 19338.427 799410.49
 -25970.885 25012.753 799187.01
 -23332.932 23333.009 799319.18
 -18277.627 21619.562 799498.92
 -11566.430 20390.371 799656.46
 -3949.5351 19763.596 799746.09
 3949.6480 19763.583 799746.09
 11566.536 20390.333 799656.46
 18277.719 21619.504 799498.92
 23333.007 23332.933 799319.18
 25970.944 25012.669 799187.01
 -28329.857 28329.924 798996.14
 -25012.669 25970.944 799187.01
 -19338.426 23851.542 799410.49
 -12152.000 22392.413 799594.22
 -4137.4440 21657.668 799696.08
 4137.5730 21657.658 799696.08
 12152.120 22392.383 799594.21
 19338.531 23851.495 799410.49
 25012.753 25970.885 799187.01
 28329.923 28329.857 798996.14
 -87489.357 -87489.287 790374.11
 -77566.615 -81299.219 792069.35
 -60179.088 -75951.827 794109.44
 -37899.660 -72326.195 795821.93
 -12917.940 -70505.076 796782.38
 12917.801 -70505.086 796782.38
 37899.529 -72326.228 795821.93
 60178.977 -75951.876 794109.44
 77566.525 -81299.281 792069.35
 87489.286 -87489.355 790374.11
 -81299.282 -77566.526 792069.35
 -73289.380 -73289.300 793257.43
 -57557.964 -69044.477 794933.92
 -36480.234 -66032.200 796435.15
 -12466.185 -64497.888 797298.32
 12466.061 -64497.903 797298.32
 36480.120 -66032.239 796435.15
 57557.863 -69044.541 794933.92
 73289.300 -73289.377 793257.43
 81299.217 -77566.614 792069.35
 -75951.878 -60178.977 794109.44
 -69044.541 -57557.864 794933.92
 -54716.491 -54716.414 796248.84
 -34885.297 -52585.684 797507.22
 -11953.646 -51471.653 798252.95
 11953.550 -51471.669 798252.95
 34885.206 -52585.735 797507.22
 54716.414 -54716.488 796248.84
 69044.475 -57557.964 794933.92
 75951.827 -60179.086 794109.44
 -72326.229 -37899.530 795821.93
 -66032.241 -36480.120 796435.15
 -52585.735 -34885.206 797507.22
 -33645.444 -33645.387 798583.73
 -11548.929 -32982.862 799236.36
 11548.866 -32982.882 799236.36
 33645.387 -33645.442 798583.73
 52585.683 -34885.297 797507.22
 66032.200 -36480.230 796435.15
 72326.194 -37899.659 795821.93
 -70505.088 -12917.802 796782.38
 -64497.903 -12466.061 797298.32
 -51471.671 -11953.551 798252.95
 -32982.884 -11548.866 799236.36
 -11330.207 -11330.185 799839.52
 11330.184 -11330.205 799839.52
 32982.862 -11548.927 799236.36
 51471.653 -11953.643 798252.95
 64497.887 -12466.185 797298.32
 70505.075 -12917.938 796782.38
 -70505.077 12917.940 796782.38
 -64497.890 12466.184 797298.32
 -51471.655 11953.647 798252.95
 -32982.864 11548.928 799236.36
 -11330.187 11330.207 799839.52
 11330.205 11330.186 799839.52
 32982.881 11548.868 799236.36
 51471.669 11953.551 798252.95
 64497.902 12466.064 797298.32
 70505.086 12917.802 796782.38
 -72326.196 37899.660 795821.93
 -66032.202 36480.233 796435.15
 -52585.685 34885.297 797507.22
 -33645.389 33645.444 798583.73
 -11548.868 32982.883 799236.36
 11548.926 32982.864 799236.36
 33645.442 33645.388 798583.73
 52585.733 34885.209 797507.22
 66032.240 36480.120 796435.15
 72326.227 37899.532 795821.93
 -75951.830 60179.088 794109.44
 -69044.477 57557.965 794933.92
 -54716.416 54716.490 796248.84
 -34885.208 52585.735 797507.22
 -11953.552 51471.671 798252.95
 11953.644 51471.654 798252.95
 34885.296 52585.686 797507.22
 54716.490 54716.414 796248.84
 69044.539 57557.865 794933.92
 75951.877 60178.978 794109.44
 -81299.219 77566.616 792069.35
 -73289.303 73289.379 793257.43
 -57557.864 69044.542 794933.92
 -36480.122 66032.241 796435.15
 -12466.064 64497.903 797298.32
 12466.184 64497.890 797298.32
 36480.232 66032.201 796435.15
 57557.962 69044.478 794933.92
 73289.379 73289.301 793257.43
 81299.281 77566.526 792069.35
 -87489.289 87489.357 790374.11
 -77566.527 81299.283 792069.35
 -60178.979 75951.878 794109.44
 -37899.532 72326.229 795821.93
 -12917.803 70505.088 796782.38
 12917.938 70505.076 796782.38
 37899.658 72326.196 795821.93
 60179.087 75951.828 794109.44
 77566.614 81299.219 792069.35
 87489.356 87489.288 790374.11
 -151748.48 -151748.41 770678.16
 -135366.38 -144702.11 775072.41
 -105531.26 -139323.63 780674.12
 -66683.342 -135854.17 785555.20
 -22769.359 -134125.96 788347.50
 22769.205 -134125.97 788347.50
 66683.200 -135854.20 785555.21
 105531.14 -139323.68 780674.13
 135366.28 -144702.18 775072.42
 151748.41 -151748.48 770678.16
 -144702.18 -135366.28 775072.42
 -131071.81 -131071.72 778229.01
 -103281.04 -127159.25 783047.60
 -65614.034 -124474.51 787528.35
 -22452.181 -123109.96 790151.78
 22452.043 -123109.97 790151.78
 65613.903 -124474.56 787528.35
 103280.93 -127159.32 783047.61
 131071.72 -131071.81 778229.01
 144702.11 -135366.37 775072.41
 -139323.68 -105531.14 780674.13
 -127159.32 -103280.93 783047.61
 -100968.69 -100968.60 787153.52
 -64459.748 -99236.318 791199.78
 -22106.433 -98315.698 793627.95
 22106.321 -98315.719 793627.95
 64459.646 -99236.372 791199.78
 100968.59 -100968.68 787153.52
 127159.25 -103281.04 783047.60
 139323.63 -105531.26 780674.12
 -135854.20 -66683.201 785555.21
 -124474.56 -65613.905 787528.35
 -99236.376 -64459.647 791199.78
 -63533.568 -63533.499 794938.35
 -21819.046 -63019.434 797215.45
 21818.973 -63019.455 797215.45
 63533.498 -63533.565 794938.35
 99236.318 -64459.745 791199.78
 124474.51 -65614.032 787528.35
 135854.16 -66683.339 785555.20
 -134125.98 -22769.206 788347.50
 -123109.98 -22452.044 790151.78
 -98315.721 -22106.321 793627.95
 -63019.459 -21818.975 797215.45
 -21655.435 -21655.407 799413.59
 21655.407 -21655.432 799413.59
 63019.433 -21819.043 797215.45
 98315.697 -22106.430 793627.95
 123109.96 -22452.178 790151.78
 134125.96 -22769.357 788347.50
 -134125.96 22769.359 788347.50
 -123109.96 22452.181 790151.78
 -98315.701 22106.431 793627.95
 -63019.437 21819.046 797215.45
 -21655.411 21655.434 799413.59
 21655.432 21655.411 799413.59
 63019.454 21818.976 797215.45
 98315.718 22106.324 793627.95
 123109.97 22452.045 790151.78
 134125.97 22769.208 788347.50
 -135854.17 66683.342 785555.20
 -124474.51 65614.034 787528.34
 -99236.322 64459.748 791199.78
 -63533.502 63533.567 794938.35
 -21818.977 63019.458 797215.45
 21819.042 63019.436 797215.45
 63533.564 63533.502 794938.35
 99236.373 64459.648 791199.78
 124474.56 65613.907 787528.35
 135854.20 66683.202 785555.21
 -139323.63 105531.26 780674.12
 -127159.26 103281.04 783047.60
 -100968.60 100968.69 787153.52
 -64459.650 99236.375 791199.78
 -22106.325 98315.720 793627.95
 22106.429 98315.701 793627.95
 64459.745 99236.320 791199.78
 100968.68 100968.60 787153.52
 127159.32 103280.93 783047.61
 139323.68 105531.14 780674.13
 -144702.11 135366.38 775072.41
 -131071.72 131071.81 778229.01
 -103280.94 127159.32 783047.61
 -65613.907 124474.56 787528.35
 -22452.046 123109.98 790151.78
 22452.177 123109.96 790151.78
 65614.030 124474.51 787528.34
 103281.04 127159.25 783047.60
 131071.81 131071.72 778229.01
 144702.18 135366.28 775072.42
 -151748.41 151748.48 770678.15
 -135366.28 144702.18 775072.42
 -105531.14 139323.69 780674.13
 -66683.204 135854.20 785555.21
 -22769.208 134125.98 788347.50
 22769.356 134125.96 788347.50
 66683.340 135854.17 785555.20
 105531.26 139323.63 780674.12
 135366.38 144702.11 775072.41
 151748.48 151748.41 770678.16
 -217014.45 -217014.37 738789.21
 -193992.95 -214347.26 745936.99
 -151489.12 -213762.86 755881.26
 -95950.112 -213778.55 764913.27
 -32821.167 -213831.87 770193.94
 32820.996 -213831.88 770193.94
 95949.954 -213778.59 764913.28
 151488.99 -213762.93 755881.27
 193992.84 -214347.33 745936.99
 217014.37 -217014.45 738789.21
 -214347.34 -193992.84 745936.99
 -194227.08 -194226.98 751366.57
 -153078.54 -195066.92 760602.30
 -97428.556 -195841.16 769515.38
 -33395.326 -196252.43 774835.30
 33395.167 -196252.45 774835.30
 97428.412 -195841.21 769515.38
 153078.42 -195067.00 760602.30
 194226.98 -194227.08 751366.57
 214347.26 -193992.95 745936.99
 -213762.93 -151488.99 755881.27
 -195067.00 -153078.42 760602.30
 -154804.92 -154804.82 769461.44
 -98980.533 -156033.36 778367.81
 -34001.920 -156641.07 783777.68
 34001.790 -156641.09 783777.68
 98980.412 -156033.43 778367.81
 154804.82 -154804.92 769461.44
 195066.92 -153078.54 760602.30
 213762.86 -151489.12 755881.26
 -213778.59 -95949.956 764913.28
 -195841.21 -97428.413 769515.38
 -156033.43 -98980.413 778367.81
 -100052.39 -100052.31 787387.49
 -34420.371 -100573.79 792906.14
 34420.283 -100573.82 792906.14
 100052.31 -100052.38 787387.49
 156033.36 -98980.529 778367.81
 195841.16 -97428.552 769515.38
 213778.54 -95950.108 764913.27
 -213831.89 -32820.997 770193.94
 -196252.45 -33395.168 774835.30
 -156641.10 -34001.792 783777.68
 -100573.82 -34420.284 792906.14
 -34623.309 -34623.276 798500.13
 34623.275 -34623.304 798500.13
 100573.79 -34420.367 792906.14
 156641.07 -34001.915 783777.68
 196252.43 -33395.321 774835.30
 213831.87 -32821.163 770193.94
 -213831.87 32821.166 770193.94
 -196252.43 33395.324 774835.30
 -156641.07 34001.919 783777.67
 -100573.80 34420.370 792906.14
 -34623.280 34623.309 798500.13
 34623.303 34623.279 798500.13
 100573.82 34420.288 792906.14
 156641.09 34001.794 783777.68
 196252.45 33395.171 774835.30
 213831.88 32821.000 770193.94
 -213778.55 95950.112 764913.27
 -195841.16 97428.555 769515.38
 -156033.37 98980.533 778367.81
 -100052.31 100052.39 787387.49
 -34420.289 100573.82 792906.14
 34420.366 100573.80 792906.14
 100052.38 100052.31 787387.49
 156033.43 98980.416 778367.81
 195841.21 97428.415 769515.38
 213778.59 95949.958 764913.28
 -213762.87 151489.12 755881.26
 -195066.92 153078.54 760602.30
 -154804.82 154804.92 769461.44
 -98980.417 156033.43 778367.81
 -34001.796 156641.10 783777.68
 34001.914 156641.07 783777.68
 98980.528 156033.37 778367.81
 154804.92 154804.82 769461.44
 195067.00 153078.42 760602.30
 213762.93 151488.99 755881.27
 -214347.26 193992.95 745936.99
 -194226.99 194227.08 751366.57
 -153078.42 195067.01 760602.30
 -97428.417 195841.21 769515.38
 -33395.172 196252.45 774835.30
 33395.320 196252.43 774835.30
 97428.552 195841.16 769515.38
 153078.54 195066.92 760602.30
 194227.08 194226.99 751366.57
 214347.33 193992.85 745936.99
 -217014.37 217014.45 738789.21
 -193992.85 214347.34 745936.99
 -151488.99 213762.93 755881.27
 -95949.959 213778.59 764913.28
 -32821.001 213831.89 770193.94
 32821.162 213831.87 770193.94
 95950.108 213778.55 764913.27
 151489.12 213762.87 755881.26
 193992.95 214347.26 745936.99
 217014.45 217014.37 738789.21
 -269659.37 -269659.29 703255.07
 -237909.19 -276204.52 712116.76
 -184773.22 -282909.89 725135.06
 -117010.68 -287851.93 737190.46
 -40066.223 -290432.81 744340.97
 40066.041 -290432.83 744340.97
 117010.51 -287851.97 737190.47
 184773.08 -282909.95 725135.07