# OOMMF OVF 2.0
#
# Segment count: 1
#
# Begin: Segment
# Begin: Header
#
# Title: Oxs_MinDriver::Magnetization
# Desc: Oxs vector field output
# Desc:  MIF source file: /home/ryan/Git/joommf/tools/omfvis/cube_example.mif
# Desc:  Iteration: 2988, State id: 6198
# Desc:  Stage: 9, Stage iteration: 90
# Desc:  Stage simulation time: 0 s
# Desc:  Total simulation time: -2 s
# meshunit: m
# meshtype: rectangular
# xbase: 2.5000000000000001e-09
# ybase: 2.5000000000000001e-09
# zbase: 2.5000000000000001e-09
# xnodes: 10
# ynodes: 10
# znodes: 10
# xstepsize: 5.0000000000000001e-09
# ystepsize: 5.0000000000000001e-09
# zstepsize: 5.0000000000000001e-09
# xmin: 0
# ymin: 0
# zmin: 0
# xmax: 4.9999999999999998e-08
# ymax: 4.9999999999999998e-08
# zmax: 4.9999999999999998e-08
# valuedim: 3
# valuelabels: Magnetization_x Magnetization_y Magnetization_z
# valueunits: A/m A/m A/m
#
# End: Header
#
# Begin: Data Text
 628282.48 -186131.04 458929.58
 669660.87 -147615.67 412024.19
 702454.44 -73981.329 375612.20
 713321.93 25461.625 361280.41
 696279.33 142962.15 367092.52
 646521.78 270077.26 386093.08
 560998.89 395408.07 411014.24
 441929.62 505256.19 435217.64
 303944.61 585756.30 452224.76
 186131.04 628282.48 458929.58
 585756.30 -303944.61 452224.76
 633331.02 -253162.70 418091.45
 675481.41 -161008.02 397242.10
 693977.62 -34516.147 396489.22
 677529.54 118379.79 408582.86
 618761.45 282241.91 421276.36
 518839.71 434360.87 426773.93
 389538.47 554871.57 424708.52
 253162.70 633331.02 418091.45
 147615.67 669660.87 412024.19
 505256.19 -441929.62 435217.64
 554871.57 -389538.47 424708.52
 605251.58 -287086.29 437323.66
 632903.81 -132746.56 470968.28
 616727.40 69039.610 504857.25
 543650.33 288376.57 511158.76
 424237.92 476687.99 482483.94
 287086.29 605251.58 437323.66
 161008.02 675481.41 397242.10
 73981.328 702454.44 375612.20
 395408.07 -560998.89 411014.24
 434360.87 -518839.71 426773.93
 476687.99 -424237.92 482483.94
 499657.12 -258066.27 568985.56
 475151.67 -10157.360 643527.56
 386397.88 272730.07 645224.76
 258066.27 499657.12 568985.56
 132746.56 632903.81 470968.28
 34516.147 693977.62 396489.22
 -25461.625 713321.93 361280.41
 270077.26 -646521.78 386093.08
 282241.91 -618761.45 421276.36
 288376.57 -543650.33 511158.76
 272730.07 -386397.88 645224.76
 215477.73 -115608.03 761711.32
 115608.03 215477.73 761711.32
 10157.359 475151.68 643527.55
 -69039.610 616727.40 504857.25
 -118379.79 677529.54 408582.86
 -142962.14 696279.33 367092.52
 142962.14 -696279.33 367092.52
 118379.79 -677529.54 408582.86
 69039.609 -616727.40 504857.25
 -10157.361 -475151.67 643527.56
 -115608.03 -215477.73 761711.32
 -215477.73 115608.03 761711.32
 -272730.07 386397.88 645224.76
 -288376.57 543650.33 511158.76
 -282241.91 618761.45 421276.36
 -270077.26 646521.78 386093.07
 25461.624 -713321.93 361280.41
 -34516.148 -693977.62 396489.22
 -132746.56 -632903.81 470968.28
 -258066.27 -499657.12 568985.56
 -386397.88 -272730.07 645224.76
 -475151.68 10157.361 643527.55
 -499657.12 258066.27 568985.55
 -476687.99 424237.92 482483.94
 -434360.87 518839.71 426773.93
 -395408.07 560998.89 411014.24
 -73981.329 -702454.44 375612.20
 -161008.02 -675481.41 397242.10
 -287086.29 -605251.58 437323.66
 -424237.92 -476687.99 482483.94
 -543650.33 -288376.57 511158.76
 -616727.40 -69039.609 504857.25
 -632903.81 132746.56 470968.28
 -605251.58 287086.29 437323.66
 -554871.57 389538.47 424708.52
 -505256.19 441929.62 435217.64
 -147615.67 -669660.87 412024.19
 -253162.70 -633331.02 418091.45
 -389538.47 -554871.57 424708.52
 -518839.71 -434360.87 426773.93
 -618761.45 -282241.91 421276.36
 -677529.54 -118379.79 408582.86
 -693977.62 34516.148 396489.22
 -675481.41 161008.02 397242.10
 -633331.03 253162.70 418091.45
 -585756.30 303944.61 452224.76
 -186131.04 -628282.48 458929.58
 -303944.61 -585756.30 452224.76
 -441929.62 -505256.19 435217.64
 -560998.89 -395408.07 411014.24
 -646521.78 -270077.26 386093.07
 -696279.33 -142962.14 367092.52
 -713321.93 -25461.624 361280.41
 -702454.44 73981.329 375612.19
 -669660.87 147615.67 412024.19
 -628282.48 186131.04 458929.58
 592143.22 -221820.54 490063.32
 638932.05 -181845.30 445755.68
 679566.63 -109248.58 407742.50
 698427.52 -13388.790 389897.09
 690237.21 99084.907 392115.76
 650833.56 221792.76 408929.88
 576397.48 345623.55 433947.36
 467151.79 458013.62 460426.68
 335795.74 544135.87 480788.29
 221820.54 592143.22 490063.32
 544135.87 -335795.74 480788.29
 596292.01 -281578.50 452934.20
 644675.43 -190403.76 433751.08
 669782.25 -68747.899 432048.00
 662090.76 77128.370 442365.28
 615166.03 235093.50 454204.58
 528284.95 386064.61 460292.44
 410124.67 510766.80 459254.86
 281578.50 596292.01 452934.20
 181845.30 638932.05 445755.68
 458013.62 -467151.79 460426.68
 510766.80 -410124.67 459254.86
 564132.64 -307717.85 476512.43
 595206.98 -158976.39 510348.07
 587524.14 31899.061 542031.21
 530729.26 240827.57 548022.39
 430312.79 427869.76 521304.49
 307717.85 564132.64 476512.43
 190403.76 644675.43 433751.08
 109248.58 679566.63 407742.50
 345623.55 -576397.48 433947.36
 386064.61 -528284.95 460292.44
 427869.76 -430312.79 521304.49
 450596.82 -267288.31 604582.06
 434707.19 -35087.761 670670.19
 369104.12 227589.24 672283.63
 267288.31 450596.82 604582.06
 158976.39 595206.98 510348.07
 68747.898 669782.25 432047.99
 13388.790 698427.52 389897.09
 221792.76 -650833.56 408929.88
 235093.50 -615166.03 454204.58
 240827.57 -530729.26 548022.38
 227589.24 -369104.12 672283.63
 185236.40 -114597.61 769775.85
 114597.61 185236.40 769775.85
 35087.763 434707.19 670670.19
 -31899.063 587524.14 542031.21
 -77128.369 662090.76 442365.28
 -99084.908 690237.21 392115.76
 99084.907 -690237.21 392115.76
 77128.368 -662090.76 442365.28
 31899.061 -587524.14 542031.21
 -35087.763 -434707.19 670670.19
 -114597.61 -185236.40 769775.85
 -185236.40 114597.61 769775.85
 -227589.25 369104.12 672283.63
 -240827.57 530729.26 548022.38
 -235093.50 615166.03 454204.58
 -221792.76 650833.56 408929.88
 -13388.791 -698427.52 389897.09
 -68747.899 -669782.25 432048.00
 -158976.39 -595206.98 510348.07
 -267288.31 -450596.82 604582.06
 -369104.12 -227589.24 672283.63
 -434707.19 35087.763 670670.19
 -450596.82 267288.31 604582.06
 -427869.76 430312.79 521304.49
 -386064.61 528284.95 460292.44
 -345623.55 576397.48 433947.36
 -109248.58 -679566.63 407742.50
 -190403.76 -644675.43 433751.08
 -307717.85 -564132.64 476512.43
 -430312.79 -427869.76 521304.49
 -530729.26 -240827.57 548022.38
 -587524.14 -31899.061 542031.21
 -595206.98 158976.39 510348.07
 -564132.64 307717.85 476512.43
 -510766.80 410124.67 459254.86
 -458013.62 467151.79 460426.67
 -181845.30 -638932.05 445755.68
 -281578.50 -596292.01 452934.20
 -410124.67 -510766.80 459254.86
 -528284.95 -386064.61 460292.44
 -615166.04 -235093.50 454204.57
 -662090.76 -77128.369 442365.28
 -669782.25 68747.900 432047.99
 -644675.43 190403.76 433751.08
 -596292.01 281578.50 452934.20
 -544135.87 335795.74 480788.29
 -221820.54 -592143.22 490063.32
 -335795.74 -544135.87 480788.29
 -467151.79 -458013.62 460426.68
 -576397.48 -345623.55 433947.36
 -650833.56 -221792.76 408929.88
 -690237.21 -99084.907 392115.76
 -698427.52 13388.790 389897.09
 -679566.63 109248.58 407742.50
 -638932.05 181845.30 445755.68
 -592143.22 221820.54 490063.32
 542652.13 -271128.04 521553.70
 596693.11 -227567.19 481840.74
 647111.84 -153269.73 444696.13
 675851.21 -58771.124 423994.21
 678026.30 49508.062 421698.10
 650682.78 166813.55 434494.14
 590313.86 286663.05 457552.01
 495853.14 398832.68 484832.09
 377294.82 489037.70 508419.85
 271128.04 542652.13 521553.70
 489037.70 -377294.82 508419.85
 546150.94 -320738.45 488718.73
 602542.95 -229021.31 473805.06
 636735.23 -110429.03 471565.13
 640199.43 28760.681 478871.09
 607914.22 179130.83 488213.53
 538266.82 326163.51 493848.36
 436707.33 453215.93 493844.13
 320738.45 546150.94 488718.73
 227567.19 596693.12 481840.74
 398832.68 -495853.14 484832.09
 453215.93 -436707.33 493844.13
 510724.45 -333735.54 517475.72
 548065.27 -189385.51 551142.08
 551760.11 -9525.4239 579197.76
 513920.15 186641.16 583995.86
 436493.69 368707.29 559935.88
 333735.54 510724.45 517475.72
 229021.31 602542.95 473805.06
 153269.73 647111.84 444696.13
 286663.05 -590313.86 457552.01
 326163.50 -538266.81 493848.36
 368707.29 -436493.70 559935.88
 395174.64 -276351.66 638331.23
 391485.01 -60166.393 695067.98
 349915.04 180724.20 696346.34
 276351.66 395174.64 638331.23
 189385.51 548065.27 551142.08
 110429.03 636735.23 471565.14
 58771.123 675851.21 423994.21
 166813.55 -650682.78 434494.14
 179130.83 -607914.22 488213.53
 186641.16 -513920.14 583995.86
 180724.20 -349915.04 696346.34
 156195.80 -113241.91 776388.52
 113241.91 156195.80 776388.52
 60166.391 391485.01 695067.98
 9525.4254 551760.11 579197.76
 -28760.683 640199.43 478871.09
 -49508.061 678026.30 421698.10
 49508.061 -678026.30 421698.10
 28760.682 -640199.43 478871.09
 -9525.4261 -551760.11 579197.76
 -60166.393 -391485.01 695067.98
 -113241.91 -156195.81 776388.52
 -156195.81 113241.91 776388.52
 -180724.20 349915.04 696346.34
 -186641.16 513920.15 583995.86
 -179130.83 607914.22 488213.53
 -166813.55 650682.78 434494.14
 -58771.124 -675851.21 423994.21
 -110429.03 -636735.23 471565.13
 -189385.51 -548065.27 551142.08
 -276351.66 -395174.64 638331.23
 -349915.04 -180724.20 696346.34
 -391485.01 60166.391 695067.98
 -395174.65 276351.66 638331.23
 -368707.29 436493.70 559935.88
 -326163.51 538266.82 493848.36
 -286663.05 590313.86 457552.01
 -153269.73 -647111.84 444696.13
 -229021.31 -602542.95 473805.06
 -333735.55 -510724.45 517475.72
 -436493.70 -368707.29 559935.88
 -513920.15 -186641.16 583995.86
 -551760.11 9525.4269 579197.76
 -548065.27 189385.51 551142.08
 -510724.45 333735.54 517475.72
 -453215.93 436707.33 493844.13
 -398832.68 495853.14 484832.09
 -227567.19 -596693.11 481840.74
 -320738.45 -546150.94 488718.73
 -436707.33 -453215.93 493844.13
 -538266.82 -326163.51 493848.36
 -607914.22 -179130.83 488213.53
 -640199.43 -28760.682 478871.09
 -636735.23 110429.03 471565.13
 -602542.95 229021.31 473805.06
 -546150.94 320738.45 488718.73
 -489037.70 377294.82 508419.85
 -271128.04 -542652.13 521553.70
 -377294.82 -489037.70 508419.85
 -495853.14 -398832.68 484832.09
 -590313.86 -286663.05 457552.01
 -650682.78 -166813.55 434494.14
 -678026.30 -49508.061 421698.10
 -675851.21 58771.124 423994.21
 -647111.84 153269.73 444696.13
 -596693.12 227567.19 481840.74
 -542652.13 271128.04 521553.69
 487411.28 -323872.62 545469.31
 550450.58 -275782.72 510830.74
 611999.45 -197664.20 475799.89
 651447.83 -101850.77 453036.58
 664029.63 4484.1303 446144.09
 648175.82 117219.83 454012.80
 601542.21 231857.87 473697.06
 522839.33 340716.68 500550.87
 419618.89 431204.19 527240.87
 323872.62 487411.28 545469.31
 431204.19 -419618.89 527240.87
 494249.85 -361350.26 514920.45
 559866.85 -267833.87 504791.18
 604337.59 -149632.78 502380.44
 619213.16 -14399.182 506327.68
 600743.56 129554.84 512174.50
 547574.62 271218.29 516335.82
 463166.97 397297.77 517330.50
 361350.26 494249.85 514920.45
 275782.72 550450.58 510830.74
 340716.68 -522839.33 500550.87
 397297.76 -463166.97 517330.50
 460425.92 -359514.56 546586.92
 506060.93 -217354.17 580223.66
 521619.24 -44940.025 604891.53
 500578.74 140956.17 607908.12
 443375.54 316689.82 585769.31
 359514.56 460425.92 546586.92
 267833.87 559866.84 504791.18
 197664.20 611999.45 475799.89
 231857.87 -601542.21 473697.06
 271218.29 -547574.62 516335.81
 316689.82 -443375.54 585769.32
 349900.66 -285405.99 660388.49
 358691.42 -80556.310 710528.78
 336459.48 144274.07 711322.72
 285405.99 349900.66 660388.49
 217354.17 506060.94 580223.66
 149632.78 604337.59 502380.44
 101850.77 651447.83 453036.58
 117219.83 -648175.82 454012.79
 129554.84 -600743.55 512174.51
 140956.16 -500578.75 607908.12
 144274.07 -336459.48 711322.72
 135382.37 -113099.44 780307.72
 113099.43 135382.38 780307.72
 80556.312 358691.42 710528.78
 44940.023 521619.24 604891.53
 14399.184 619213.16 506327.68
 -4484.1309 664029.63 446144.09
 4484.1308 -664029.62 446144.09
 -14399.185 -619213.17 506327.68
 -44940.023 -521619.24 604891.53
 -80556.313 -358691.42 710528.78
 -113099.44 -135382.37 780307.72
 -135382.37 113099.43 780307.72
 -144274.07 336459.48 711322.72
 -140956.16 500578.74 607908.12
 -129554.84 600743.56 512174.50
 -117219.83 648175.82 454012.79
 -101850.78 -651447.83 453036.58
 -149632.78 -604337.59 502380.44
 -217354.17 -506060.94 580223.66
 -285405.99 -349900.65 660388.49
 -336459.48 -144274.07 711322.72
 -358691.42 80556.316 710528.78
 -349900.65 285405.99 660388.49
 -316689.82 443375.54 585769.31
 -271218.29 547574.62 516335.81
 -231857.87 601542.21 473697.06
 -197664.20 -611999.45 475799.89
 -267833.87 -559866.85 504791.18
 -359514.56 -460425.92 546586.92
 -443375.54 -316689.82 585769.31
 -500578.74 -140956.16 607908.12
 -521619.24 44940.021 604891.53
 -506060.94 217354.17 580223.65
 -460425.92 359514.56 546586.92
 -397297.77 463166.97 517330.50
 -340716.68 522839.33 500550.87
 -275782.72 -550450.58 510830.74
 -361350.26 -494249.85 514920.45
 -463166.97 -397297.77 517330.50
 -547574.62 -271218.29 516335.82
 -600743.56 -129554.84 512174.50
 -619213.16 14399.186 506327.68
 -604337.59 149632.78 502380.44
 -559866.85 267833.87 504791.18
 -494249.85 361350.26 514920.45
 -431204.19 419618.89 527240.87
 -323872.62 -487411.28 545469.31
 -419618.89 -431204.19 527240.87
 -522839.33 -340716.68 500550.87
 -601542.21 -231857.87 473697.05
 -648175.82 -117219.83 454012.80
 -664029.63 -4484.1309 446144.09
 -651447.83 101850.78 453036.58
 -611999.45 197664.20 475799.89
 -550450.58 275782.72 510830.74
 -487411.28 323872.62 545469.31
 431544.02 -377164.39 558136.88
 504850.49 -324763.06 528824.11
 578906.63 -241829.19 496372.60
 630008.01 -142567.87 471979.14
 653112.65 -35613.328 460625.19
 647938.28 74576.323 463264.89
 613673.84 184511.78 478915.25
 549582.97 288520.53 504692.45
 461570.84 376064.10 534348.34
 377164.39 431544.02 558136.88
 376064.10 -461570.84 534348.34
 445989.45 -402331.25 528415.54
 522166.58 -306543.94 522850.72
 578102.79 -186527.06 520581.24
 604546.35 -51949.435 521368.36
 598572.44 88449.676 523342.80
 559676.10 225445.48 525297.06
 490593.07 348561.68 527089.36
 402331.25 445989.45 528415.54
 324763.06 504850.49 528824.11
 288520.53 -549582.97 504692.45
 348561.68 -490593.07 527089.36
 419144.92 -386635.70 561097.47
 474904.36 -244662.25 595488.23
 502548.81 -75162.723 617895.83
 495855.86 105220.78 618914.82
 454863.33 276141.39 597365.28
 386635.70 419144.92 561097.47
 306543.94 522166.58 522850.72
 241829.19 578906.63 496372.60
 184511.78 -613673.84 478915.25
 225445.47 -559676.10 525297.06
 276141.39 -454863.33 597365.28
 318194.07 -297969.75 670795.47
 339178.37 -98468.149 717817.57
 332256.44 118157.85 718083.83
 297969.76 318194.06 670795.47
 244662.25 474904.36 595488.23
 186527.06 578102.79 520581.24
 142567.87 630008.02 471979.13
 74576.323 -647938.28 463264.89
 88449.674 -598572.44 523342.80
 105220.78 -495855.86 618914.82
 118157.84 -332256.44 718083.83
 122490.33 -115665.54 782059.85
 115665.54 122490.32 782059.85
 98468.147 339178.37 717817.57
 75162.726 502548.81 617895.83
 51949.433 604546.35 521368.36
 35613.329 653112.65 460625.19
 -35613.330 -653112.65 460625.19
 -51949.432 -604546.35 521368.37
 -75162.727 -502548.81 617895.83
 -98468.147 -339178.37 717817.57
 -115665.54 -122490.33 782059.85
 -122490.33 115665.55 782059.84
 -118157.84 332256.44 718083.83
 -105220.78 495855.86 618914.82
 -88449.675 598572.44 523342.80
 -74576.322 647938.28 463264.89
 -142567.87 -630008.01 471979.14
 -186527.06 -578102.79 520581.24
 -244662.25 -474904.36 595488.23
 -297969.76 -318194.07 670795.47
 -332256.44 -118157.84 718083.83
 -339178.37 98468.144 717817.57
 -318194.07 297969.76 670795.47
 -276141.39 454863.33 597365.29
 -225445.47 559676.10 525297.06
 -184511.78 613673.84 478915.25
 -241829.19 -578906.63 496372.60
 -306543.94 -522166.58 522850.72
 -386635.70 -419144.92 561097.47
 -454863.33 -276141.39 597365.29
 -495855.86 -105220.79 618914.82
 -502548.81 75162.730 617895.83
 -474904.36 244662.25 595488.23
 -419144.92 386635.70 561097.47
 -348561.68 490593.07 527089.36
 -288520.53 549582.97 504692.44
 -324763.06 -504850.49 528824.11
 -402331.25 -445989.45 528415.54
 -490593.07 -348561.68 527089.36
 -559676.10 -225445.48 525297.06
 -598572.44 -88449.671 523342.80
 -604546.35 51949.431 521368.36
 -578102.79 186527.06 520581.24
 -522166.58 306543.94 522850.72
 -445989.45 402331.25 528415.54
 -376064.10 461570.84 534348.34
 -377164.39 -431544.02 558136.88
 -461570.84 -376064.10 534348.34
 -549582.97 -288520.53 504692.44
 -613673.84 -184511.78 478915.25
 -647938.28 -74576.323 463264.89
 -653112.65 35613.330 460625.19
 -630008.01 142567.87 471979.14
 -578906.63 241829.19 496372.60
 -504850.49 324763.06 528824.11
 -431544.02 377164.40 558136.88
 377164.39 -431544.02 558136.88
 461570.84 -376064.10 534348.34
 549582.97 -288520.53 504692.45
 613673.84 -184511.78 478915.25
 647938.28 -74576.323 463264.89
 653112.65 35613.330 460625.19
 630008.01 142567.87 471979.14
 578906.63 241829.19 496372.60
 504850.49 324763.06 528824.11
 431544.02 377164.40 558136.88
 324763.06 -504850.49 528824.11
 402331.25 -445989.45 528415.54
 490593.07 -348561.68 527089.36
 559676.10 -225445.48 525297.06
 598572.44 -88449.672 523342.80
 604546.35 51949.432 521368.36
 578102.79 186527.06 520581.24
 522166.58 306543.94 522850.72
 445989.45 402331.25 528415.54
 376064.10 461570.84 534348.34
 241829.19 -578906.63 496372.60
 306543.94 -522166.58 522850.72
 386635.70 -419144.92 561097.47
 454863.33 -276141.39 597365.29
 495855.86 -105220.79 618914.82
 502548.81 75162.729 617895.83
 474904.36 244662.25 595488.23
 419144.92 386635.70 561097.47
 348561.68 490593.07 527089.36
 288520.53 549582.97 504692.44
 142567.87 -630008.01 471979.14
 186527.06 -578102.79 520581.24
 244662.25 -474904.36 595488.23
 297969.76 -318194.07 670795.47
 332256.44 -118157.84 718083.83
 339178.37 98468.144 717817.57
 318194.07 297969.76 670795.47
 276141.39 454863.33 597365.29
 225445.47 559676.10 525297.06
 184511.78 613673.84 478915.25
 35613.329 -653112.65 460625.19
 51949.434 -604546.35 521368.37
 75162.726 -502548.81 617895.83
 98468.147 -339178.37 717817.57
 115665.54 -122490.33 782059.85
 122490.33 115665.55 782059.85
 118157.84 332256.44 718083.83
 105220.78 495855.86 618914.82
 88449.675 598572.44 523342.80
 74576.322 647938.28 463264.89
 -74576.322 -647938.28 463264.89
 -88449.675 -598572.44 523342.80
 -105220.78 -495855.86 618914.82
 -118157.84 -332256.44 718083.83
 -122490.33 -115665.54 782059.85
 -115665.54 122490.32 782059.85
 -98468.148 339178.37 717817.57
 -75162.725 502548.81 617895.83
 -51949.433 604546.35 521368.36
 -35613.329 653112.65 460625.19
 -184511.78 -613673.84 478915.25
 -225445.47 -559676.10 525297.06
 -276141.39 -454863.33 597365.29
 -318194.07 -297969.75 670795.47
 -339178.37 -98468.149 717817.57
 -332256.44 118157.85 718083.82
 -297969.75 318194.07 670795.47
 -244662.25 474904.36 595488.23
 -186527.06 578102.79 520581.24
 -142567.87 630008.02 471979.13
 -288520.53 -549582.97 504692.45
 -348561.68 -490593.07 527089.36
 -419144.92 -386635.70 561097.47
 -474904.36 -244662.25 595488.23
 -502548.81 -75162.723 617895.83
 -495855.86 105220.78 618914.82
 -454863.33 276141.39 597365.28
 -386635.70 419144.92 561097.47
 -306543.94 522166.58 522850.72
 -241829.19 578906.63 496372.60
 -376064.10 -461570.84 534348.34
 -445989.45 -402331.25 528415.54
 -522166.58 -306543.94 522850.72
 -578102.79 -186527.06 520581.24
 -604546.35 -51949.435 521368.36
 -598572.44 88449.676 523342.80
 -559676.10 225445.47 525297.06
 -490593.07 348561.68 527089.36
 -402331.25 445989.45 528415.54
 -324763.06 504850.49 528824.11
 -431544.02 -377164.39 558136.88
 -504850.49 -324763.06 528824.11
 -578906.63 -241829.19 496372.60
 -630008.02 -142567.87 471979.13
 -653112.65 -35613.328 460625.19
 -647938.28 74576.322 463264.89
 -613673.84 184511.78 478915.25
 -549582.97 288520.53 504692.45
 -461570.84 376064.10 534348.34
 -377164.39 431544.02 558136.88
 323872.62 -487411.28 545469.31
 419618.89 -431204.19 527240.87
 522839.33 -340716.68 500550.87
 601542.21 -231857.87 473697.06
 648175.82 -117219.83 454012.80
 664029.63 -4484.1307 446144.09
 651447.83 101850.77 453036.58
 611999.45 197664.20 475799.89
 550450.58 275782.72 510830.74
 487411.28 323872.62 545469.31
 275782.72 -550450.58 510830.74
 361350.26 -494249.85 514920.45
 463166.97 -397297.77 517330.50
 547574.62 -271218.29 516335.82
 600743.56 -129554.84 512174.50
 619213.16 14399.185 506327.68
 604337.59 149632.78 502380.44
 559866.85 267833.87 504791.18
 494249.85 361350.26 514920.45
 431204.19 419618.89 527240.87
 197664.20 -611999.45 475799.89
 267833.87 -559866.85 504791.17
 359514.56 -460425.92 546586.92
 443375.54 -316689.82 585769.31
 500578.74 -140956.16 607908.12
 521619.24 44940.021 604891.53
 506060.94 217354.17 580223.66
 460425.92 359514.56 546586.92
 397297.77 463166.97 517330.49
 340716.68 522839.33 500550.87
 101850.77 -651447.83 453036.58
 149632.78 -604337.59 502380.44
 217354.17 -506060.94 580223.66
 285405.99 -349900.65 660388.49
 336459.48 -144274.07 711322.72
 358691.42 80556.316 710528.78
 349900.66 285405.99 660388.49
 316689.82 443375.54 585769.31
 271218.29 547574.62 516335.82
 231857.87 601542.21 473697.05
 -4484.1301 -664029.62 446144.09
 14399.184 -619213.17 506327.68
 44940.024 -521619.24 604891.53
 80556.313 -358691.42 710528.78
 113099.43 -135382.37 780307.72
 135382.37 113099.43 780307.72
 144274.07 336459.48 711322.72
 140956.17 500578.74 607908.12
 129554.84 600743.56 512174.50
 117219.83 648175.82 454012.80
 -117219.83 -648175.82 454012.79
 -129554.84 -600743.56 512174.50
 -140956.16 -500578.74 607908.12
 -144274.07 -336459.48 711322.72
 -135382.37 -113099.43 780307.72
 -113099.44 135382.38 780307.71
 -80556.310 358691.42 710528.78
 -44940.025 521619.24 604891.53
 -14399.183 619213.16 506327.68
 4484.1303 664029.63 446144.09
 -231857.87 -601542.21 473697.06
 -271218.29 -547574.62 516335.82
 -316689.82 -443375.54 585769.31
 -349900.65 -285405.99 660388.49
 -358691.42 -80556.310 710528.78
 -336459.48 144274.07 711322.72
 -285405.99 349900.66 660388.48
 -217354.17 506060.94 580223.66
 -149632.78 604337.59 502380.44
 -101850.77 651447.83 453036.58
 -340716.68 -522839.33 500550.87
 -397297.77 -463166.97 517330.50
 -460425.92 -359514.56 546586.92
 -506060.94 -217354.17 580223.66
 -521619.24 -44940.025 604891.53
 -500578.75 140956.17 607908.12
 -443375.54 316689.82 585769.32
 -359514.56 460425.92 546586.91
 -267833.87 559866.84 504791.18
 -197664.20 611999.45 475799.89
 -431204.19 -419618.89 527240.87
 -494249.85 -361350.26 514920.45
 -559866.85 -267833.87 504791.18
 -604337.59 -149632.78 502380.44
 -619213.16 -14399.182 506327.68
 -600743.56 129554.84 512174.50
 -547574.62 271218.29 516335.81
 -463166.97 397297.77 517330.50
 -361350.26 494249.85 514920.45
 -275782.72 550450.58 510830.74
 -487411.28 -323872.62 545469.31
 -550450.58 -275782.72 510830.74
 -611999.45 -197664.20 475799.89
 -651447.83 -101850.77 453036.58
 -664029.63 4484.1302 446144.09
 -648175.82 117219.83 454012.80
 -601542.21 231857.87 473697.06
 -522839.33 340716.68 500550.87
 -419618.89 431204.19 527240.87
 -323872.62 487411.29 545469.31
 271128.04 -542652.13 521553.70
 377294.82 -489037.70 508419.85
 495853.14 -398832.68 484832.09
 590313.86 -286663.05 457552.01
 650682.78 -166813.55 434494.14
 678026.30 -49508.061 421698.10
 675851.21 58771.125 423994.21
 647111.84 153269.73 444696.13
 596693.11 227567.19 481840.74
 542652.13 271128.04 521553.69
 227567.19 -596693.11 481840.74
 320738.45 -546150.94 488718.73
 436707.33 -453215.93 493844.13
 538266.82 -326163.51 493848.36
 607914.22 -179130.83 488213.53
 640199.43 -28760.682 478871.08
 636735.23 110429.03 471565.13
 602542.95 229021.31 473805.06
 546150.94 320738.45 488718.73
 489037.70 377294.82 508419.85
 153269.73 -647111.84 444696.13
 229021.31 -602542.95 473805.06
 333735.55 -510724.45 517475.72
 436493.69 -368707.29 559935.88
 513920.15 -186641.16 583995.86
 551760.11 9525.4270 579197.76
 548065.27 189385.51 551142.08
 510724.45 333735.55 517475.72
 453215.93 436707.33 493844.13
 398832.68 495853.14 484832.09
 58771.124 -675851.21 423994.21
 110429.03 -636735.23 471565.13
 189385.51 -548065.27 551142.08
 276351.66 -395174.64 638331.23
 349915.04 -180724.20 696346.34
 391485.01 60166.391 695067.98
 395174.64 276351.66 638331.23
 368707.29 436493.69 559935.88
 326163.50 538266.82 493848.36
 286663.05 590313.86 457552.01
 -49508.061 -678026.30 421698.10
 -28760.682 -640199.43 478871.09
 9525.4262 -551760.11 579197.76
 60166.392 -391485.01 695067.98
 113241.91 -156195.81 776388.52
 156195.80 113241.91 776388.52
 180724.20 349915.04 696346.34
 186641.15 513920.15 583995.86
 179130.83 607914.22 488213.53
 166813.55 650682.78 434494.14
 -166813.55 -650682.78 434494.14
 -179130.83 -607914.22 488213.53
 -186641.16 -513920.15 583995.86
 -180724.20 -349915.04 696346.34
 -156195.81 -113241.91 776388.52
 -113241.91 156195.80 776388.52
 -60166.394 391485.01 695067.98
 -9525.4228 551760.11 579197.76
 28760.681 640199.43 478871.08
 49508.062 678026.30 421698.10
 -286663.05 -590313.86 457552.01
 -326163.51 -538266.81 493848.36
 -368707.29 -436493.69 559935.88
 -395174.65 -276351.66 638331.23
 -391485.01 -60166.392 695067.98
 -349915.04 180724.20 696346.34
 -276351.66 395174.64 638331.23
 -189385.51 548065.27 551142.08
 -110429.03 636735.23 471565.13
 -58771.124 675851.21 423994.21
 -398832.68 -495853.14 484832.09
 -453215.93 -436707.33 493844.13
 -510724.45 -333735.54 517475.72
 -548065.27 -189385.51 551142.08
 -551760.11 -9525.4239 579197.76
 -513920.14 186641.16 583995.86
 -436493.70 368707.29 559935.88
 -333735.54 510724.45 517475.72
 -229021.31 602542.95 473805.06
 -153269.73 647111.84 444696.13
 -489037.70 -377294.82 508419.85
 -546150.94 -320738.45 488718.73
 -602542.95 -229021.31 473805.06
 -636735.23 -110429.03 471565.13
 -640199.43 28760.681 478871.09
 -607914.22 179130.83 488213.53
 -538266.81 326163.50 493848.36
 -436707.33 453215.93 493844.13
 -320738.45 546150.94 488718.73
 -227567.19 596693.12 481840.74
 -542652.13 -271128.04 521553.70
 -596693.11 -227567.19 481840.74
 -647111.84 -153269.73 444696.13
 -675851.21 -58771.124 423994.21
 -678026.30 49508.062 421698.10
 -650682.78 166813.55 434494.14
 -590313.86 286663.05 457552.01
 -495853.14 398832.68 484832.09
 -377294.82 489037.70 508419.85
 -271128.04 542652.13 521553.70
 221820.54 -592143.22 490063.32
 335795.74 -544135.87 480788.29
 467151.79 -458013.62 460426.68
 576397.48 -345623.55 433947.36
 650833.56 -221792.76 408929.88
 690237.21 -99084.907 392115.76
 698427.52 13388.790 389897.09
 679566.63 109248.58 407742.50
 638932.05 181845.30 445755.68
 592143.22 221820.54 490063.32
 181845.30 -638932.05 445755.68
 281578.50 -596292.01 452934.20
 410124.67 -510766.80 459254.86
 528284.95 -386064.61 460292.44
 615166.04 -235093.50 454204.57
 662090.76 -77128.369 442365.28
 669782.25 68747.900 432047.99
 644675.43 190403.76 433751.08
 596292.01 281578.50 452934.20
 544135.87 335795.74 480788.28
 109248.58 -679566.63 407742.50
 190403.76 -644675.43 433751.08
 307717.85 -564132.64 476512.43
 430312.79 -427869.76 521304.49
 530729.26 -240827.57 548022.39
 587524.14 -31899.062 542031.21
 595206.98 158976.39 510348.07
 564132.64 307717.85 476512.43
 510766.80 410124.67 459254.86
 458013.62 467151.79 460426.68
 13388.791 -698427.52 389897.09
 68747.899 -669782.24 432048.00
 158976.39 -595206.98 510348.07
 267288.31 -450596.82 604582.06
 369104.12 -227589.24 672283.63
 434707.19 35087.764 670670.19
 450596.82 267288.31 604582.06
 427869.76 430312.79 521304.49
 386064.61 528284.95 460292.44
 345623.55 576397.48 433947.36
 -99084.907 -690237.21 392115.76
 -77128.368 -662090.76 442365.28
 -31899.062 -587524.14 542031.21
 35087.764 -434707.19 670670.19
 114597.61 -185236.40 769775.85
 185236.40 114597.61 769775.85
 227589.24 369104.12 672283.63
 240827.57 530729.26 548022.38
 235093.50 615166.04 454204.57
 221792.76 650833.56 408929.88
 -221792.76 -650833.56 408929.88
 -235093.50 -615166.03 454204.58
 -240827.57 -530729.26 548022.39
 -227589.24 -369104.12 672283.63
 -185236.40 -114597.61 769775.85
 -114597.61 185236.40 769775.85
 -35087.760 434707.19 670670.19
 31899.061 587524.14 542031.21
 77128.371 662090.76 442365.28
 99084.907 690237.21 392115.76
 -345623.55 -576397.48 433947.36
 -386064.61 -528284.95 460292.44
 -427869.76 -430312.79 521304.49
 -450596.81 -267288.31 604582.06
 -434707.19 -35087.762 670670.19
 -369104.12 227589.24 672283.63
 -267288.31 450596.82 604582.06
 -158976.39 595206.98 510348.07
 -68747.899 669782.25 432047.99
 -13388.790 698427.52 389897.09
 -458013.62 -467151.79 460426.68
 -510766.80 -410124.67 459254.86
 -564132.63 -307717.85 476512.43
 -595206.98 -158976.39 510348.07
 -587524.14 31899.062 542031.21
 -530729.26 240827.57 548022.38
 -430312.79 427869.76 521304.49
 -307717.85 564132.64 476512.43
 -190403.76 644675.43 433751.08
 -109248.58 679566.63 407742.50
 -544135.87 -335795.74 480788.29
 -596292.01 -281578.50 452934.20
 -644675.43 -190403.76 433751.08
 -669782.25 -68747.899 432048.00
 -662090.76 77128.370 442365.28
 -615166.03 235093.50 454204.58
 -528284.95 386064.61 460292.44
 -410124.67 510766.80 459254.86
 -281578.50 596292.01 452934.20
 -181845.30 638932.05 445755.68
 -592143.22 -221820.54 490063.32
 -638932.05 -181845.30 445755.68
 -679566.63 -109248.58 407742.50
 -698427.52 -13388.790 389897.09
 -690237.21 99084.907 392115.76
 -650833.56 221792.76 408929.88
 -576397.48 345623.55 433947.36
 -467151.79 458013.62 460426.67
 -335795.74 544135.87 480788.29
 -221820.54 592143.22 490063.32
 186131.04 -628282.48 458929.58
 303944.61 -585756.30 452224.76
 441929.62 -505256.19 435217.64
 560998.89 -395408.07 411014.24
 646521.78 -270077.26 386093.07
 696279.33 -142962.14 367092.52
 713321.93 -25461.624 361280.41
 702454.44 73981.329 375612.19