# OOMMF OVF 2.0
#
# Segment count: 1
#
# Begin: Segment
# Begin: Header
#
# Title: Oxs_MinDriver::Magnetization
# Desc: Oxs vector field output
# Desc:  MIF source file: /home/ryan/Git/joommf/tools/omfvis/cube_example.mif
# Desc:  Iteration: 1719, State id: 3562
# Desc:  Stage: 3, Stage iteration: 319
# Desc:  Stage simulation time: 0 s
# Desc:  Total simulation time: -2 s
# meshunit: m
# meshtype: rectangular
# xbase: 2.5000000000000001e-09
# ybase: 2.5000000000000001e-09
# zbase: 2.5000000000000001e-09
# xnodes: 10
# ynodes: 10
# znodes: 10
# xstepsize: 5.0000000000000001e-09
# ystepsize: 5.0000000000000001e-09
# zstepsize: 5.0000000000000001e-09
# xmin: 0
# ymin: 0
# zmin: 0
# xmax: 4.9999999999999998e-08
# ymax: 4.9999999999999998e-08
# zmax: 4.9999999999999998e-08
# valuedim: 3
# valuelabels: Magnetization_x Magnetization_y Magnetization_z
# valueunits: A/m A/m A/m
#
# End: Header
#
# Begin: Data Text
 -107942.20 -7430.4543 792649.53
 -190415.36 45818.125 775656.30
 -301743.92 131058.45 729228.56
 -417176.55 228292.25 643308.92
 -520040.53 318082.06 518055.64
 -598164.66 387978.35 362866.14
 -641864.44 435069.16 196786.35
 -647302.21 467730.45 47202.463
 -621080.23 500472.94 -61532.018
 -581584.19 537076.66 -115362.45
 -149784.02 -69895.930 782738.34
 -245044.50 -11563.775 761458.78
 -366154.32 87189.601 705924.21
 -480962.28 200513.03 607017.14
 -571501.94 304149.83 469977.04
 -629178.41 384784.12 309960.82
 -650457.62 441613.99 147925.54
 -636678.84 484343.49 7172.2085
 -595899.65 525486.51 -93635.111
 -547848.03 565108.26 -143231.27
 -219626.99 -146288.75 755224.20
 -324994.42 -82054.256 726392.27
 -451228.66 28933.063 659966.35
 -559103.10 156708.60 550314.58
 -631596.10 273619.77 407699.15
 -665676.14 366344.28 250334.07
 -663700.46 435850.26 97653.761
 -630299.50 491594.05 -32524.288
 -574271.56 542495.00 -126140.19
 -517117.65 585341.41 -173103.33
 -298138.72 -214399.31 710736.41
 -407888.62 -145711.11 672603.26
 -532108.42 -28396.438 596702.83
 -628939.83 106108.47 482882.68
 -684685.12 230307.12 343751.24
 -700856.87 332209.50 196052.29
 -682597.41 413548.65 55120.701
 -634982.78 482149.42 -65793.713
 -566602.12 543150.08 -154757.95
 -500868.87 590547.42 -200958.03
 -372637.22 -263502.96 657044.66
 -480895.15 -192838.54 609551.60
 -597544.47 -76076.889 526453.14
 -682479.21 56352.668 413577.69
 -726130.56 180291.61 283247.86
 -732269.37 286184.30 147919.28
 -705938.07 375932.87 18053.087
 -650708.73 455289.13 -96384.397
 -574091.30 525958.38 -183812.31
 -501258.37 578994.42 -231312.57
 -438350.69 -289812.40 603205.98
 -540556.48 -220074.17 547143.53
 -646288.65 -109957.44 458497.92
 -719985.55 13053.026 348497.38
 -755823.07 129879.69 227733.95
 -757995.11 233871.77 103669.69
 -729912.23 326972.75 -17803.066
 -672755.91 413174.25 -129176.33
 -592189.04 491517.21 -218455.89
 -514398.28 550117.91 -269749.33
 -494910.98 -293180.49 555975.11
 -588140.95 -227737.48 492164.47
 -681422.42 -129182.75 398717.07
 -744874.02 -20567.153 291100.81
 -775440.10 84347.012 177702.65
 -776716.04 181436.52 61587.210
 -750136.02 272509.57 -55086.180
 -694550.88 360255.48 -166778.48
 -613491.40 442125.54 -261061.90
 -533089.59 504173.79 -318785.62
 -542335.33 -275537.73 519568.43
 -625251.58 -218481.74 448693.87
 -706194.21 -135266.94 350703.00
 -760718.87 -43439.549 243761.79
 -787238.88 47509.382 134155.88
 -788250.90 134854.66 21788.522
 -763498.65 219728.41 -93750.966
 -710234.74 303550.63 -208383.36
 -630406.67 383037.90 -309627.84
 -549305.15 444038.86 -375623.94
 -578502.91 -241870.68 496822.86
 -651525.67 -197916.11 419932.76
 -722199.74 -131993.66 317813.16
 -770036.56 -56296.474 209462.18
 -793466.53 21796.930 99678.277
 -793677.58 99504.715 -13217.878
 -769226.28 176588.64 -130795.21
 -716793.28 252756.70 -249642.65
 -638072.36 323993.98 -357619.31
 -557466.65 377903.17 -431763.97
 -598853.61 -204755.96 489335.62
 -664385.54 -177146.32 408914.46
 -729280.18 -125736.03 303876.40
 -774078.81 -61242.711 192487.21
 -796016.56 8567.6413 79273.189
 -795112.70 79949.185 -37468.975
 -769312.99 151112.07 -159130.98
 -715631.51 219885.38 -281996.39
 -637027.63 280775.82 -394158.27
 -558170.53 322386.32 -473827.74
 -70052.368 -28097.211 796431.55
 -120878.38 19211.395 790581.65
 -205746.07 105876.07 765805.99
 -312533.15 220516.94 702634.55
 -427182.79 343722.98 582554.18
 -528542.76 448445.22 399423.88
 -590783.12 509315.18 177688.93
 -600745.56 527606.44 -27133.363
 -570668.36 533772.61 -171535.51
 -527901.14 549576.28 -243487.79
 -108116.55 -69874.729 789574.78
 -169782.69 -16103.637 781610.20
 -265460.18 83377.779 750052.69
 -375301.28 212901.59 673663.02
 -479775.70 347211.75 537828.29
 -557717.78 456769.30 346861.18
 -592098.73 521369.63 132637.88
 -580541.85 547438.34 -57292.462
 -536835.93 561384.56 -191453.80
 -486489.44 578722.51 -261549.76
 -170046.78 -125119.34 771640.62
 -244277.85 -64628.816 759046.41
 -350821.20 47002.895 717436.56
 -460096.75 189682.22 626363.82
 -548284.92 332947.93 478047.41
 -598195.40 447203.36 286655.59
 -603129.35 518512.17 85907.619
 -568615.66 555900.08 -87471.914
 -509318.33 579498.78 -211603.42
 -450855.67 599158.00 -278816.88
 -240851.36 -176780.57 742118.09
 -325765.24 -112057.59 722025.00
 -438945.47 5776.6703 668800.05
 -543312.37 153510.03 566785.98
 -614828.11 299315.42 415206.79
 -642272.90 416644.71 232148.04
 -625831.72 496108.23 47024.324
 -573831.43 545913.47 -112676.44
 -500795.56 580003.06 -229783.06
 -433812.02 603922.33 -295101.58
 -310702.58 -216006.34 704844.07
 -402544.75 -150221.18 674826.88
 -517084.49 -33199.500 609525.58
 -613804.93 110673.71 500993.85
 -671924.90 252147.17 353466.73
 -685420.74 369583.58 183320.44
 -657030.47 456232.24 12771.501
 -594253.51 517679.09 -137372.23
 -510621.38 562282.09 -251206.41
 -435461.97 591719.51 -316608.42
 -375148.69 -238417.93 665146.86
 -469585.27 -174667.47 623683.37
 -580639.52 -64752.327 546502.41
 -668381.97 67827.140 434355.87
 -716953.36 198927.63 293948.42
 -723680.69 312318.34 136906.95
 -690850.11 402789.05 -22070.450
 -623191.47 473046.57 -166911.17
 -532439.55 526700.60 -281237.64
 -450169.57 561680.43 -349088.02
 -432861.04 -241876.47 627795.42
 -525901.53 -183365.68 574286.18
 -629770.28 -85789.202 485828.79
 -708048.08 30211.407 371153.87
 -749812.65 146450.17 237346.44
 -754023.90 251469.93 90613.619
 -721147.09 340957.23 -60786.835
 -652593.90 415252.03 -204173.85
 -557808.89 474425.98 -322132.32
 -469984.45 513265.34 -394554.57
 -482965.61 -225844.76 596438.06
 -571558.87 -176352.92 531243.92
 -666159.79 -95330.335 432600.58
 -735271.02 1140.0092 315238.36
 -771760.15 100161.37 185348.24
 -774937.70 193601.37 44610.266
 -743224.71 277373.22 -103349.54
 -675270.73 349952.46 -248078.04
 -578507.24 409237.25 -371287.27
 -486840.45 448415.51 -449343.87
 -523127.32 -192711.82 573759.50
 -605653.95 -156641.92 498644.77
 -691013.36 -94641.430 391846.31
 -752417.86 -17714.480 271207.61
 -784693.80 64521.944 141748.21
 -786659.53 145467.39 2452.9078
 -755106.56 220559.85 -145490.34
 -687199.12 286576.31 -292628.40
 -589530.32 340147.01 -420421.24
 -495781.94 374947.69 -503601.53
 -548994.03 -153513.57 561283.48
 -625556.05 -133767.47 480401.80
 -704311.86 -88167.651 369013.92
 -761040.64 -25919.761 245245.41
 -790650.53 44025.852 113725.41
 -791189.05 115232.45 -27227.957
 -758596.48 182358.41 -176852.47
 -689934.21 240723.05 -325642.74
 -592407.33 285755.98 -455408.69
 -498956.50 311704.83 -542109.31
 48.942412 -34423.923 799259.03
 -18031.662 8716.0879 799749.27
 -61790.545 97913.583 791577.45
 -135769.29 234341.22 752762.17
 -239549.54 406813.73 645847.20
 -355808.46 571453.86 432250.88
 -442766.92 653123.63 131859.69
 -467893.25 632356.01 -145608.32
 -446143.30 580447.74 -322547.02
 -412073.19 556031.97 -401278.12
 -35210.651 -64070.699 796652.47
 -63149.119 -13078.908 797396.47
 -118949.85 89952.947 785976.72
 -200846.20 242686.01 735366.78
 -299599.42 424800.11 608099.54
 -390817.38 584307.85 381898.04
 -442367.08 659545.05 96497.136
 -442396.35 647952.26 -156343.65
 -407980.97 607923.96 -322459.28
 -366911.17 585685.01 -402925.87
 -90992.584 -102174.40 788213.64
 -132352.24 -43085.923 787798.51
 -203478.24 73602.905 770181.29
 -293003.47 240364.25 704538.14
 -382053.95 427267.41 558101.55
 -443979.50 579438.18 327312.71
 -459653.34 651779.41 62469.251
 -432387.74 652433.54 -165442.81
 -381336.12 626190.12 -320107.32
 -332456.68 608162.65 -399513.14
 -155326.01 -137695.06 772602.03
 -210685.30 -73532.145 768247.83
 -296260.58 50652.836 741393.25
 -390718.01 222500.71 661689.41
 -468844.79 406930.94 504570.88
 -506677.68 552642.53 279041.16
 -495538.69 627095.49 34534.794
 -446035.18 640827.24 -174336.09
 -378550.20 627798.86 -320262.92
 -320314.81 615688.34 -397902.36
 -220844.75 -164811.63 751042.42
 -288775.91 -99473.450 739400.78
 -385688.54 24524.330 700459.07
 -482109.95 191677.20 608958.00
 -550831.91 367146.90 449207.48
 -572525.68 506988.64 234897.55
 -544281.14 586253.50 8054.3635
 -478552.79 612877.23 -188065.74
 -396257.92 612091.55 -329125.50
 -327740.43 606400.33 -406035.52
 -283957.17 -180038.71 725916.24
 -361690.39 -117311.98 703859.33
 -465582.32 -713.70721 650563.29
 -561106.07 153327.65 549227.28
 -622725.31 314333.09 391673.20
 -635541.27 447040.24 190374.18
 -598194.91 530714.84 -22463.500
 -521569.77 568618.95 -211275.81
 -426489.40 578537.60 -351284.84
 -347496.23 578870.26 -429133.54
 -343040.07 -180760.14 699749.44
 -427082.35 -124270.43 664949.26
 -533191.93 -21240.064 596032.91
 -625190.00 113275.53 486113.28
 -681485.74 255329.82 332240.69
 -690496.64 378022.66 142524.59
 -649566.77 463036.01 -60503.415
 -566085.56 508755.20 -246404.72
 -460252.18 526709.02 -388259.64
 -371242.55 531821.62 -468342.54
 -396551.79 -165235.84 674865.76
 -483294.62 -118752.83 626357.79
 -587372.34 -34221.118 542054.10
 -673851.80 76699.002 424312.40
 -725738.43 196794.24 273085.62
 -733434.09 306130.95 91423.621
 -691570.22 387916.09 -106074.22
 -603529.63 436446.75 -292003.80
 -488811.72 458528.17 -436823.78
 -390908.62 466395.68 -519293.29
 -441468.06 -134540.29 653456.09
 -527810.94 -101930.14 592474.35
 -627121.71 -38578.706 495207.07
 -707402.51 48079.919 370499.68
 -755324.79 145909.31 219533.46
 -762050.45 239901.98 41547.017
 -719361.55 314344.63 -153968.86
 -627558.89 360612.97 -340775.77
 -506091.19 382442.83 -487451.73
 -401278.11 390527.23 -571370.60
 -472011.16 -98892.152 638299.15
 -555756.80 -81959.200 569576.22
 -650207.42 -36475.609 464650.23
 -725810.03 31627.293 334961.96
 -770794.35 112436.50 182302.23
 -776208.17 193601.35 4404.0111
 -731976.38 260183.47 -191089.35
 -637279.46 301919.55 -377782.32
 -512477.96 320579.88 -524018.02
 -404146.70 325640.06 -608788.96
 87756.018 -30780.104 794576.28
 101324.90 8726.0397 793509.37
 106717.88 97911.902 786781.13
 91181.148 247699.38 755202.63
 43016.363 459380.11 653543.81
 -43195.265 682702.01 414791.67
 -144764.31 785434.24 46220.586
 -214343.37 716679.47 -283597.35
 -240442.46 602242.05 -468499.67
 -242595.06 539166.54 -538931.42
 53357.358 -55619.673 796278.50
 57714.789 -6648.8379 797887.71
 50596.394 98310.823 792322.53
 22875.095 267397.11 753641.50
 -30107.857 489302.89 632199.49
 -101517.79 696808.24 379674.09
 -167377.30 781478.27 35728.958
 -204300.18 727256.45 -263361.89
 -212051.59 631400.25 -443134.12
 -204046.15 571995.79 -520755.20
 891.47954 -84449.154 795529.73
 -8177.6242 -25829.933 799541.08
 -32712.226 95402.549 793617.20
 -75183.715 281957.04 744880.95
 -130763.02 508440.91 603646.32
 -183143.42 698451.70 344417.94
 -213147.15 770614.02 26876.064
 -215762.98 731025.94 -242996.74
 -200204.47 654176.96 -414693.47
 -180604.87 601429.02 -495646.05
 -59293.270 -109275.60 790280.43
 -83417.366 -44250.564 794407.60
 -126795.50 87190.832 785060.93
 -183550.58 282238.44 725707.00
 -239901.45 506101.93 571233.87
 -275029.36 682642.44 313621.02
 -276489.50 750486.78 17976.445
 -250394.13 723882.05 -230862.64
 -212277.12 662508.56 -394994.73
 -179724.53 617193.39 -476205.22
 -121467.83 -126721.88 780504.41
 -160677.06 -59517.753 781434.91
 -222211.10 74126.772 764936.24
 -291720.97 267440.07 695251.52
 -348705.08 482565.39 534355.13
 -371033.61 649488.77 283722.39
 -351361.64 718694.18 4865.6173
 -301862.57 703990.34 -230817.21
 -242703.55 654884.22 -390155.92
 -196297.43 616156.41 -470976.22
 -182994.62 -134818.66 767031.22
 -236123.08 -69687.935 761176.38
 -313469.83 58169.260 733725.43
 -393400.21 240236.06 653852.36
 -451642.10 441159.46 491322.44
 -466173.22 600080.91 250170.81
 -431654.03 673352.37 -16473.787
 -362687.26 669495.43 -245425.78
 -283481.84 630096.53 -403257.25
 -222583.54 596628.60 -484242.59
 -242532.23 -131730.48 750882.95
 -307441.31 -72780.191 734971.35
 -396905.09 41996.585 693327.22
 -484134.92 204631.92 603107.91
 -544123.95 386165.21 441367.83
 -555332.90 536260.13 209834.32
 -511015.96 613571.50 -48915.256
 -425286.10 618757.32 -276172.24
 -326451.09 586720.75 -434957.98
 -250624.61 557225.44 -516417.58
 -298329.03 -115932.58 733184.44
 -372110.68 -67177.612 704997.03
 -469161.90 28441.779 647362.48
 -560166.04 165441.14 546665.57
 -621852.44 322986.82 385978.05
 -633015.15 461506.77 162182.97
 -582448.61 540484.42 -92898.894
 -481537.13 551840.35 -321860.57
 -363305.14 524931.32 -482137.41
 -272613.32 498582.48 -563114.10
 -346655.47 -88217.953 715575.00
 -425895.48 -53227.534 675114.71
 -526053.69 19871.337 602389.12
 -617722.87 128791.27 491763.42
 -680466.69 260008.81 330696.99
 -693065.77 383783.02 111222.45
 -638027.88 460696.14 -143803.68
 -523067.32 474785.47 -375472.15
 -386900.24 451227.95 -535445.18
 -282654.13 427969.28 -613961.68
 -380102.80 -57453.742 701584.58
 -460921.02 -37062.556 652823.24
 -561034.43 17062.129 570043.20
 -651899.11 103499.70 452012.57
 -715006.64 212915.30 288846.97
 -728732.98 322593.30 69869.919
 -670008.28 395121.94 -186996.15
 -544125.09 409470.55 -419835.38
 -395605.80 387890.54 -577093.56
 -281708.00 366821.42 -652750.07
 183587.11 -27661.013 778158.49
 226424.12 6687.2209 767259.67
 279411.21 88887.039 744330.89
 327100.57 230611.63 692692.93
 353909.50 435084.33 570481.99
 332827.33 656087.31 314285.56
 239685.28 760522.22 -64474.189
 110852.65 688421.17 -392158.12
 7612.2512 564770.82 -566547.42
 -49934.703 492626.75 -628351.34
 148995.55 -52122.222 784272.66
 183924.87 -6495.2489 778543.16
 226110.72 93502.114 761663.51
 261351.05 258066.88 710701.85
 275731.21 479095.52 578307.69
 251271.19 691090.85 315049.56
 180681.88 778273.07 -40559.718
 90259.399 715688.42 -345894.96
 15602.040 605065.44 -523117.95
 -26129.754 533985.70 -595127.31
 97935.941 -77556.601 790185.75
 120369.35 -20624.774 790623.70
 146120.77 98750.682 780318.54
 164499.82 286467.05 728612.68
 166187.45 520436.51 584403.60
 143606.22 720809.69 315928.22
 99048.326 793645.92 -17764.675
 47674.725 739890.75 -300480.95
 5477.3501 643270.83 -475576.11
 -18529.445 576579.05 -554268.21
 39860.532 -96777.045 793123.79
 47547.272 -31915.167 797947.79
 53804.107 101320.54 791731.81
 53647.297 304356.88 737894.88
 44561.508 544277.72 584616.15
 27508.109 735083.34 314477.01
 7160.5832 799960.98 -3341.0371
 -11112.768 753106.02 -269643.91
 -23983.463 667429.74 -440411.55
 -30328.230 606035.93 -521345.04
 -20426.511 -107888.07 792428.50
 -28397.789 -39395.594 798524.61
 -42898.325 99878.433 792580.62
 -62006.806 308367.46 735570.98
 -80701.934 547934.40 577282.51
 -91461.394 732453.46 308458.65
 -90298.681 794887.27 615.49378
 -80013.149 753574.15 -256366.71
 -66369.771 675202.52 -423906.37
 -55374.778 617872.60 -505140.66
 -80908.069 -110337.70 788212.84
 -104484.79 -42618.033 792001.66
 -139484.17 94466.171 782061.58
 -176994.68 298473.95 720823.27
 -205052.80 531959.53 561224.03
 -210652.08 712822.71 295820.02
 -190389.28 776982.28 -7103.1888
 -153738.24 740321.67 -261320.45
 -114567.48 665985.85 -428178.87
 -86167.981 610803.63 -509405.54
 -140544.99 -103494.06 780727.92
 -178820.59 -40904.726 778684.79
 -232606.29 85981.496 760592.86
 -286939.02 275976.23 693904.26
 -324606.40 497554.07 535789.73
 -327405.06 676120.05 275077.44
 -290096.58 745036.37 -27654.581
 -227240.28 712144.85 -284976.45
 -161720.89 638983.58 -453372.18
 -115340.82 584221.14 -534211.71
 -197546.84 -86727.700 770359.37
 -248699.55 -33496.737 759622.61
 -318148.34 76016.636 730070.62
 -386702.54 243463.97 656647.88
 -434412.25 446917.43 501548.41
 -437792.91 622818.92 245833.20
 -385318.27 698384.18 -61557.829
 -294660.42 668084.59 -326861.16
 -200570.26 593868.80 -497082.91
 -135429.14 538823.43 -575611.20
 -247657.27 -61139.718 758239.94
 -308764.05 -20730.249 737722.86
 -389520.94 66898.922 695555.87
 -468816.30 206425.62 614491.45
 -526558.66 386291.84 462076.39
 -534307.80 557030.73 210313.92
 -468774.26 639508.60 -106204.69
 -348311.30 610479.12 -382092.24
 -224021.92 534504.60 -551469.86
 -140132.20 480503.09 -624083.12
 -282258.90 -34397.019 747761.16
 -348705.97 -7069.6255 719968.17
 -435565.70 61501.873 668206.59
 -521423.45 176572.72 580465.04
 -587278.42 333694.09 428663.40
 -601249.35 496719.23 178239.24
 -526085.80 584009.29 -148885.45
 -379090.30 555419.22 -433359.02
 -229940.93 478936.52 -598119.53
 -130463.20 427975.87 -663186.25
 282258.90 -34397.019 747761.16
 348705.97 -7069.6259 719968.17
 435565.70 61501.873 668206.59
 521423.45 176572.72 580465.04
 587278.42 333694.09 428663.40
 601249.35 496719.23 178239.24
 526085.80 584009.29 -148885.44
 379090.30 555419.22 -433359.02
 229940.93 478936.52 -598119.53
 130463.21 427975.87 -663186.25
 247657.27 -61139.719 758239.94
 308764.05 -20730.249 737722.86
 389520.94 66898.921 695555.87
 468816.30 206425.62 614491.45
 526558.66 386291.84 462076.39
 534307.80 557030.73 210313.92
 468774.27 639508.60 -106204.69
 348311.30 610479.12 -382092.23
 224021.92 534504.61 -551469.86
 140132.20 480503.09 -624083.12
 197546.84 -86727.699 770359.37
 248699.55 -33496.738 759622.61
 318148.34 76016.636 730070.62
 386702.54 243463.97 656647.88
 434412.25 446917.43 501548.41
 437792.91 622818.92 245833.20
 385318.27 698384.18 -61557.828
 294660.42 668084.59 -326861.16
 200570.26 593868.80 -497082.91
 135429.14 538823.43 -575611.20
 140544.99 -103494.06 780727.92
 178820.59 -40904.726 778684.79
 232606.29 85981.496 760592.86
 286939.02 275976.23 693904.26
 324606.40 497554.07 535789.73
 327405.06 676120.05 275077.44
 290096.58 745036.37 -27654.581
 227240.28 712144.85 -284976.45
 161720.89 638983.58 -453372.18
 115340.82 584221.14 -534211.71
 80908.071 -110337.70 788212.84
 104484.78 -42618.032 792001.66
 139484.17 94466.170 782061.58
 176994.67 298473.95 720823.27
 205052.80 531959.53 561224.03
 210652.08 712822.71 295820.02
 190389.28 776982.28 -7103.1886
 153738.24 740321.67 -261320.45
 114567.49 665985.85 -428178.87
 86167.980 610803.63 -509405.54
 20426.510 -107888.07 792428.50
 28397.793 -39395.595 798524.61
 42898.321 99878.433 792580.62
 62006.809 308367.46 735570.98
 80701.933 547934.39 577282.51
 91461.395 732453.46 308458.65
 90298.678 794887.27 615.49385
 80013.153 753574.15 -256366.71
 66369.767 675202.52 -423906.37
 55374.780 617872.60 -505140.66
 -39860.531 -96777.046 793123.79
 -47547.274 -31915.167 797947.79
 -53804.106 101320.54 791731.81
 -53647.298 304356.88 737894.88
 -44561.507 544277.72 584616.15
 -27508.109 735083.34 314477.01
 -7160.5823 799960.98 -3341.0383
 11112.766 753106.02 -269643.91
 23983.466 667429.74 -440411.55
 30328.229 606035.93 -521345.04
 -97935.940 -77556.601 790185.75
 -120369.35 -20624.775 790623.70
 -146120.77 98750.681 780318.54
 -164499.82 286467.05 728612.68
 -166187.45 520436.51 584403.60
 -143606.23 720809.69 315928.21
 -99048.324 793645.92 -17764.674
 -47674.724 739890.75 -300480.95
 -5477.3506 643270.83 -475576.11
 18529.446 576579.05 -554268.21
 -148995.55 -52122.222 784272.66
 -183924.87 -6495.2484 778543.16
 -226110.72 93502.115 761663.51
 -261351.05 258066.88 710701.85
 -275731.21 479095.52 578307.69
 -251271.19 691090.85 315049.56
 -180681.88 778273.07 -40559.720
 -90259.398 715688.42 -345894.96
 -15602.039 605065.44 -523117.95
 26129.755 533985.70 -595127.31
 -183587.11 -27661.013 778158.49
 -226424.12 6687.2207 767259.67
 -279411.21 88887.039 744330.89
 -327100.57 230611.63 692692.93
 -353909.49 435084.33 570481.99
 -332827.33 656087.31 314285.56
 -239685.28 760522.22 -64474.189
 -110852.65 688421.17 -392158.12
 -7612.2507 564770.82 -566547.42
 49934.703 492626.75 -628351.34
 380102.80 -57453.742 701584.58
 460921.02 -37062.555 652823.24
 561034.43 17062.129 570043.20
 651899.11 103499.70 452012.57
 715006.64 212915.30 288846.98
 728732.98 322593.30 69869.918
 670008.28 395121.94 -186996.15
 544125.09 409470.55 -419835.38
 395605.80 387890.54 -577093.56
 281708.00 366821.42 -652750.07
 346655.47 -88217.953 715575.00
 425895.48 -53227.535 675114.71
 526053.69 19871.338 602389.11
 617722.87 128791.27 491763.42
 680466.69 260008.81 330696.99
 693065.77 383783.02 111222.45
 638027.87 460696.14 -143803.68
 523067.33 474785.47 -375472.15
 386900.23 451227.95 -535445.18
 282654.13 427969.28 -613961.68
 298329.03 -115932.58 733184.44
 372110.68 -67177.611 704997.03
 469161.90 28441.777 647362.48
 560166.04 165441.14 546665.56
 621852.44 322986.82 385978.05
 633015.15 461506.78 162182.97
 582448.62 540484.42 -92898.894
 481537.13 551840.35 -321860.57
 363305.14 524931.32 -482137.41
 272613.32 498582.48 -563114.10
 242532.23 -131730.48 750882.94
 307441.31 -72780.191 734971.35
 396905.09 41996.586 693327.22
 484134.92 204631.92 603107.91
 544123.95 386165.21 441367.83
 555332.90 536260.13 209834.33
 511015.96 613571.50 -48915.256
 425286.10 618757.32 -276172.24
 326451.09 586720.75 -434957.98
 250624.61 557225.44 -516417.58
 182994.62 -134818.66 767031.22
 236123.09 -69687.936 761176.38
 313469.83 58169.261 733725.43
 393400.22 240236.06 653852.36
 451642.10 441159.46 491322.45
 466173.22 600080.91 250170.81
 431654.03 673352.37 -16473.787
 362687.26 669495.43 -245425.78
 283481.84 630096.53 -403257.25
 222583.54 596628.60 -484242.59
 121467.83 -126721.88 780504.41
 160677.05 -59517.752 781434.91
 222211.10 74126.771 764936.24
 291720.97 267440.07 695251.52
 348705.08 482565.39 534355.13
 371033.61 649488.77 283722.39
 351361.64 718694.18 4865.6176
 301862.57 703990.35 -230817.21
 242703.55 654884.22 -390155.92
 196297.43 616156.41 -470976.22
 59293.270 -109275.60 790280.43
 83417.367 -44250.565 794407.60
 126795.50 87190.832 785060.93
 183550.58 282238.45 725707.00
 239901.45 506101.93 571233.87
 275029.37 682642.44 313621.02
 276489.50 750486.78 17976.446
 250394.13 723882.05 -230862.64
 212277.12 662508.56 -394994.73
 179724.53 617193.39 -476205.22
 -891.47997 -84449.155 795529.73
 8177.6254 -25829.932 799541.08
 32712.226 95402.550 793617.20
 75183.714 281957.04 744880.96
 130763.02 508440.91 603646.31
 183143.42 698451.70 344417.94
 213147.15 770614.02 26876.061
 215762.98 731025.94 -242996.74
 200204.47 654176.96 -414693.47
 180604.87 601429.02 -495646.05
 -53357.357 -55619.672 796278.50
 -57714.790 -6648.8381 797887.71
 -50596.393 98310.822 792322.53
 -22875.094 267397.12 753641.50
 30107.857 489302.89 632199.49
 101517.79 696808.24 379674.09
 167377.30 781478.27 35728.960
 204300.18 727256.45 -263361.90
 212051.59 631400.25 -443134.12
 204046.15 571995.79 -520755.20
 -87756.018 -30780.104 794576.28
 -101324.89 8726.0399 793509.37
 -106717.88 97911.902 786781.13
 -91181.148 247699.37 755202.63
 -43016.362 459380.11 653543.81
 43195.266 682702.01 414791.67
 144764.31 785434.24 46220.584
 214343.37 716679.47 -283597.35
 240442.46 602242.05 -468499.67
 242595.06 539166.54 -538931.42
 472011.16 -98892.151 638299.15
 555756.80 -81959.201 569576.22
 650207.42 -36475.609 464650.23
 725810.03 31627.293 334961.97
 770794.35 112436.50 182302.23
 776208.17 193601.35 4404.0117
 731976.38 260183.47 -191089.34
 637279.46 301919.54 -377782.32
 512477.96 320579.88 -524018.02
 404146.70 325640.06 -608788.96
 441468.06 -134540.29 653456.09
 527810.94 -101930.14 592474.35
 627121.71 -38578.708 495207.07
 707402.51 48079.920 370499.67
 755324.79 145909.31 219533.46
 762050.45 239901.99 41547.017
 719361.55 314344.63 -153968.86
 627558.89 360612.97 -340775.77
 506091.19 382442.83 -487451.73
 401278.11 390527.23 -571370.60
 396551.79 -165235.84 674865.76
 483294.62 -118752.83 626357.79
 587372.34 -34221.116 542054.10
 673851.80 76698.999 424312.40
 725738.43 196794.25 273085.62
 733434.09 306130.94 91423.622
 691570.22 387916.09 -106074.22
 603529.63 436446.75 -292003.80
 488811.72 458528.17 -436823.78
 390908.62 466395.68 -519293.29
 343040.07 -180760.14 699749.44
 427082.36 -124270.43 664949.26
 533191.92 -21240.066 596032.91
 625190.00 113275.53 486113.27
 681485.74 255329.81 332240.69
 690496.64 378022.67 142524.58
 649566.77 463036.01 -60503.417
 566085.56 508755.20 -246404.72
 460252.18 526709.02 -388259.64
 371242.55 531821.62 -468342.54
 283957.17 -180038.71 725916.24
 361690.39 -117311.98 703859.33
 465582.32 -713.70600 650563.29
 561106.07 153327.64 549227.29
 622725.31 314333.10 391673.20
 635541.27 447040.23 190374.18
 598194.91 530714.84 -22463.498
 521569.77 568618.95 -211275.81
 426489.40 578537.60 -351284.83
 347496.23 578870.26 -429133.54
 220844.75 -164811.63 751042.42
 288775.91 -99473.450 739400.77
 385688.54 24524.330 700459.07
 482109.95 191677.20 608958.00
 550831.91 367146.90 449207.48
 572525.68 506988.64 234897.55
 544281.14 586253.50 8054.3617
 478552.79 612877.23 -188065.73
 396257.92 612091.55 -329125.50
 327740.43 606400.33 -406035.52
 155326.01 -137695.06 772602.03
 210685.30 -73532.145 768247.83
 296260.58 50652.837 741393.25
 390718.00 222500.71 661689.41
 468844.79 406930.94 504570.88
 506677.68 552642.53 279041.16
 495538.69 627095.49 34534.793
 446035.18 640827.24 -174336.09
 378550.20 627798.86 -320262.92
 320314.81 615688.34 -397902.36
 90992.585 -102174.40 788213.64
 132352.24 -43085.923 787798.51
 203478.24 73602.904 770181.29
 293003.47 240364.25 704538.14
 382053.95 427267.41 558101.55
 443979.50 579438.18 327312.70
 459653.34 651779.41 62469.254
 432387.74 652433.54 -165442.81
 381336.12 626190.13 -320107.32
 332456.68 608162.65 -399513.14
 35210.651 -64070.699 796652.47
 63149.120 -13078.908 797396.47
 118949.85 89952.948 785976.72
 200846.20 242686.01 735366.78
 299599.43 424800.12 608099.54
 390817.38 584307.85 381898.05
 442367.08 659545.05 96497.132
 442396.35 647952.26 -156343.65
 407980.97 607923.96 -322459.28
 366911.17 585685.01 -402925.87
 -48.941930 -34423.923 799259.03
 18031.663 8716.0880 799749.27
 61790.545 97913.583 791577.45
 135769.29 234341.22 752762.17
 239549.54 406813.73 645847.20
 355808.46 571453.86 432250.88
 442766.92 653123.63 131859.69
 467893.25 632356.01 -145608.32
 446143.30 580447.74 -322547.02
 412073.19 556031.97 -401278.12
 548994.03 -153513.57 561283.48
 625556.05 -133767.47 480401.80
 704311.86 -88167.651 369013.92
 761040.64 -25919.762 245245.41
 790650.53 44025.852 113725.41
 791189.05 115232.45 -27227.957
 758596.48 182358.41 -176852.47
 689934.21 240723.05 -325642.74
 592407.33 285755.98 -455408.69
 498956.50 311704.83 -542109.31
 523127.32 -192711.82 573759.50
 605653.95 -156641.92 498644.77
 691013.36 -94641.429 391846.31
 752417.86 -17714.481 271207.61
 784693.80 64521.944 141748.21
 786659.53 145467.39 2452.9072
 755106.56 220559.85 -145490.34
 687199.12 286576.31 -292628.41
 589530.32 340147.01 -420421.23
 495781.94 374947.69 -503601.53
 482965.61 -225844.76 596438.06
 571558.87 -176352.92 531243.92
 666159.79 -95330.337 432600.58
 735271.02 1140.0115 315238.35
 771760.15 100161.36 185348.24
 774937.69 193601.38 44610.267
 743224.71 277373.22 -103349.54
 675270.73 349952.46 -248078.04
 578507.24 409237.25 -371287.28
 486840.45 448415.51 -449343.87
 432861.04 -241876.47 627795.42
 525901.52 -183365.68 574286.18
 629770.28 -85789.200 485828.79
 708048.08 30211.404 371153.87
 749812.65 146450.17 237346.44
 754023.91 251469.92 90613.619
 721147.09 340957.23 -60786.832
 652593.90 415252.02 -204173.85
 557808.89 474425.98 -322132.32
 469984.45 513265.34 -394554.57
 375148.69 -238417.93 665146.86
 469585.27 -174667.47 623683.37
 580639.52 -64752.329 546502.41
 668381.97 67827.142 434355.86
 716953.37 198927.62 293948.42
 723680.69 312318.34 136906.95
 690850.11 402789.05 -22070.453
 623191.47 473046.57 -166911.16
 532439.55 526700.59 -281237.64
 450169.57 561680.43 -349088.02
 310702.58 -216006.34 704844.07
 402544.75 -150221.18 674826.88
 517084.49 -33199.499 609525.58
 613804.93 110673.71 500993.85
 671924.90 252147.17 353466.73
 685420.74 369583.57 183320.44
 657030.47 456232.24 12771.503
 594253.51 517679.09 -137372.23
 510621.38 562282.09 -251206.41
 435461.97 591719.51 -316608.42
 240851.36 -176780.57 742118.09
 325765.24 -112057.59 722025.00
 438945.47 5776.6690 668800.05
 543312.37 153510.04 566785.97
 614828.11 299315.42 415206.79
 642272.90 416644.71 232148.04
 625831.72 496108.23 47024.324
 573831.43 545913.47 -112676.44
 500795.56 580003.06 -229783.06
 433812.02 603922.33 -295101.58
 170046.78 -125119.34 771640.62
 244277.85 -64628.817 759046.41
 350821.20 47002.897 717436.56
 460096.74 189682.22 626363.83
 548284.92 332947.93 478047.40
 598195.40 447203.35 286655.59
 603129.35 518512.17 85907.616
 568615.66 555900.08 -87471.912
 509318.33 579498.78 -211603.42
 450855.67 599158.00 -278816.88
 108116.55 -69874.729 789574.78
 169782.69 -16103.636 781610.20
 265460.18 83377.778 750052.69
 375301.28 212901.59 673663.02
 479775.70 347211.75 537828.30
 557717.78 456769.30 346861.18
 592098.73 521369.63 132637.88
 580541.85 547438.34 -57292.465
 536835.93 561384.56 -191453.80
 486489.44 578722.51 -261549.76
 70052.369 -28097.211 796431.55
 120878.38 19211.395 790581.65
 205746.07 105876.07 765805.99
 312533.15 220516.94 702634.55
 427182.79 343722.98 582554.18
 528542.76 448445.22 399423.88
 590783.12 509315.18 177688.93
 600745.56 527606.44 -27133.363
 570668.36 533772.60 -171535.51
 527901.14 549576.28 -243487.79
 598853.61 -204755.96 489335.62
 664385.54 -177146.32 408914.46
 729280.18 -125736.03 303876.40
 774078.81 -61242.711 192487.21