# OOMMF OVF 2.0
#
# Segment count: 1
#
# Begin: Segment
# Begin: Header
#
# Title: Oxs_MinDriver::Magnetization
# Desc: Oxs vector field output
# Desc:  MIF source file: /home/ryan/Git/joommf/tools/omfvis/cube_example.mif
# Desc:  Iteration: 3272, State id: 6810
# Desc:  Stage: 12, Stage iteration: 95
# Desc:  Stage simulation time: 0 s
# Desc:  Total simulation time: -2 s
# meshunit: m
# meshtype: rectangular
# xbase: 2.5000000000000001e-09
# ybase: 2.5000000000000001e-09
# zbase: 2.5000000000000001e-09
# xnodes: 10
# ynodes: 10
# znodes: 10
# xstepsize: 5.0000000000000001e-09
# ystepsize: 5.0000000000000001e-09
# zstepsize: 5.0000000000000001e-09
# xmin: 0
# ymin: 0
# zmin: 0
# xmax: 4.9999999999999998e-08
# ymax: 4.9999999999999998e-08
# zmax: 4.9999999999999998e-08
# valuedim: 3
# valuelabels: Magnetization_x Magnetization_y Magnetization_z
# valueunits: A/m A/m A/m
#
# End: Header
#
# Begin: Data Text
 595088.46 -120663.28 520874.36
 634278.44 -90692.686 479025.77
 664124.09 -28130.523 445138.03
 671393.26 60287.135 430809.18
 649728.06 167329.63 435722.66
 594185.94 284121.79 454112.19
 502134.16 398487.62 478611.42
 377379.53 495956.47 501609.28
 236984.68 563279.63 516288.98
 120663.28 595088.46 520874.36
 563279.63 -236984.68 516288.98
 605978.18 -194721.70 484637.91
 641473.31 -113943.16 464250.95
 653049.38 194.88918 462089.24
 630208.48 139951.11 472494.40
 566266.39 290297.11 484840.14
 462600.20 429556.83 491408.17
 331164.83 538194.94 490587.47
 194721.70 605978.19 484637.91
 90692.686 634278.44 479025.77
 495956.47 -377379.53 501609.28
 538194.94 -331164.83 490587.47
 577421.19 -237889.99 499993.13
 593082.48 -96380.136 528170.46
 567448.69 87499.697 557086.88
 490621.95 286565.79 563178.61
 372378.19 458787.79 539303.48
 237889.99 577421.19 499993.13
 113943.16 641473.31 464250.95
 28130.523 664124.09 445138.03
 398487.62 -502134.17 478611.42
 429556.83 -462600.20 491408.17
 458787.79 -372378.19 539303.48
 466389.94 -216951.88 612708.99
 430170.07 7468.0531 674461.22
 339851.94 259648.29 676079.45
 216951.88 466389.94 612708.99
 96380.137 593082.48 528170.47
 -194.88981 653049.38 462089.24
 -60287.135 671393.26 430809.18
 284121.79 -594185.94 454112.19
 290297.11 -566266.39 484840.14
 286565.78 -490621.95 563178.61
 259648.29 -339851.94 676079.45
 194950.20 -95523.791 769980.28
 95523.792 194950.20 769980.28
 -7468.0531 430170.07 674461.22
 -87499.697 567448.69 557086.87
 -139951.11 630208.48 472494.40
 -167329.63 649728.06 435722.66
 167329.63 -649728.06 435722.66
 139951.11 -630208.48 472494.40
 87499.697 -567448.69 557086.87
 7468.0529 -430170.07 674461.22
 -95523.791 -194950.20 769980.28
 -194950.20 95523.791 769980.28
 -259648.29 339851.94 676079.45
 -286565.78 490621.95 563178.61
 -290297.11 566266.39 484840.14
 -284121.79 594185.94 454112.19
 60287.135 -671393.26 430809.18
 194.89000 -653049.38 462089.24
 -96380.137 -593082.48 528170.47
 -216951.88 -466389.94 612708.99
 -339851.94 -259648.29 676079.45
 -430170.07 -7468.0531 674461.22
 -466389.94 216951.88 612708.99
 -458787.79 372378.20 539303.48
 -429556.83 462600.20 491408.17
 -398487.62 502134.17 478611.42
 -28130.523 -664124.09 445138.03
 -113943.16 -641473.31 464250.95
 -237889.99 -577421.19 499993.13
 -372378.19 -458787.79 539303.48
 -490621.95 -286565.79 563178.61
 -567448.69 -87499.697 557086.87
 -593082.48 96380.137 528170.47
 -577421.19 237889.99 499993.13
 -538194.94 331164.83 490587.47
 -495956.47 377379.53 501609.28
 -90692.686 -634278.44 479025.77
 -194721.70 -605978.19 484637.91
 -331164.83 -538194.94 490587.47
 -462600.20 -429556.83 491408.17
 -566266.39 -290297.11 484840.14
 -630208.48 -139951.11 472494.40
 -653049.38 -194.88952 462089.24
 -641473.31 113943.16 464250.95
 -605978.19 194721.70 484637.91
 -563279.63 236984.68 516288.98
 -120663.28 -595088.46 520874.36
 -236984.68 -563279.63 516288.98
 -377379.53 -495956.47 501609.28
 -502134.17 -398487.62 478611.42
 -594185.94 -284121.79 454112.19
 -649728.06 -167329.63 435722.66
 -671393.26 -60287.135 430809.18
 -664124.09 28130.523 445138.03
 -634278.44 90692.686 479025.77
 -595088.46 120663.28 520874.36
 553403.30 -158427.59 555558.72
 598268.11 -128496.03 515329.05
 636472.32 -67837.488 479896.93
 652458.34 16573.606 462626.66
 640368.44 118344.42 464675.01
 595800.43 230457.79 481571.45
 515470.27 342920.29 506651.83
 401440.51 442518.41 531999.04
 269101.66 515388.31 549508.13
 158427.59 553403.30 555558.72
 515388.31 -269101.66 549508.13
 562693.28 -224467.37 522485.09
 604805.11 -145550.06 503016.86
 623629.21 -36955.501 499720.83
 610243.89 95146.586 508477.66
 558858.27 238836.62 520225.44
 469297.63 375933.92 527667.91
 350751.75 487913.78 528122.48
 224467.37 562693.28 522485.09
 128496.03 598268.11 515329.05
 442518.41 -401440.51 531999.04
 487913.77 -350751.75 528122.48
 530577.05 -258180.22 540213.82
 550558.79 -123287.14 567173.07
 534414.72 48754.759 593316.01
 474494.09 236428.35 599130.20
 376168.87 405694.23 577848.74
 258180.22 530577.05 540213.82
 145550.06 604805.11 503016.86
 67837.488 636472.32 479896.93
 342920.29 -515470.27 506651.83
 375933.92 -469297.63 527667.91
 405694.23 -376168.87 577848.74
 414962.43 -225487.67 645725.55
 389250.10 -17648.158 698693.71
 322129.15 214323.95 700212.86
 225487.67 414962.43 645725.56
 123287.14 550558.80 567173.07
 36955.503 623629.20 499720.83
 -16573.606 652458.34 462626.66
 230457.79 -595800.43 481571.45
 238836.62 -558858.26 520225.44
 236428.35 -474494.09 599130.20
 214323.95 -322129.15 700212.86
 166180.36 -95155.361 776742.91
 95155.359 166180.36 776742.91
 17648.158 389250.10 698693.71
 -48754.759 534414.71 593316.01
 -95146.587 610243.89 508477.65
 -118344.42 640368.43 464675.01
 118344.42 -640368.43 464675.01
 95146.587 -610243.89 508477.65
 48754.759 -534414.71 593316.01
 -17648.158 -389250.10 698693.71
 -95155.361 -166180.36 776742.91
 -166180.36 95155.361 776742.91
 -214323.95 322129.15 700212.86
 -236428.35 474494.09 599130.20
 -238836.62 558858.26 520225.44
 -230457.79 595800.43 481571.45
 16573.607 -652458.34 462626.66
 -36955.503 -623629.20 499720.83
 -123287.14 -550558.80 567173.07
 -225487.67 -414962.43 645725.55
 -322129.15 -214323.95 700212.86
 -389250.10 17648.158 698693.71
 -414962.43 225487.67 645725.55
 -405694.23 376168.87 577848.74
 -375933.92 469297.63 527667.91
 -342920.29 515470.27 506651.83
 -67837.489 -636472.32 479896.93
 -145550.06 -604805.11 503016.86
 -258180.22 -530577.05 540213.82
 -376168.87 -405694.23 577848.74
 -474494.09 -236428.35 599130.20
 -534414.71 -48754.759 593316.01
 -550558.80 123287.14 567173.07
 -530577.05 258180.22 540213.82
 -487913.78 350751.75 528122.48
 -442518.41 401440.51 531999.04
 -128496.03 -598268.12 515329.05
 -224467.37 -562693.28 522485.09
 -350751.75 -487913.78 528122.48
 -469297.63 -375933.92 527667.91
 -558858.26 -238836.62 520225.44
 -610243.89 -95146.586 508477.65
 -623629.20 36955.502 499720.83
 -604805.11 145550.06 503016.86
 -562693.28 224467.37 522485.09
 -515388.31 269101.66 549508.13
 -158427.59 -553403.30 555558.72
 -269101.66 -515388.31 549508.13
 -401440.51 -442518.41 531999.04
 -515470.27 -342920.29 506651.83
 -595800.43 -230457.79 481571.45
 -640368.44 -118344.42 464675.01
 -652458.34 -16573.606 462626.66
 -636472.32 67837.488 479896.93
 -598268.12 128496.03 515329.05
 -553403.30 158427.59 555558.72
 497466.25 -209558.41 590434.25
 549104.41 -176826.97 554271.21
 597212.53 -115376.01 519639.84
 623783.52 -33147.658 499795.32
 623104.32 63703.680 497677.45
 591831.84 169727.76 510810.70
 527011.97 277561.05 534058.29
 429406.44 376520.38 560216.49
 311451.94 453498.84 580806.76
 209558.41 497466.25 590434.25
 453498.84 -311451.94 580806.76
 505300.71 -264769.37 560863.95
 555441.51 -186047.87 544858.62
 583960.21 -81495.105 540693.10
 582727.97 42935.955 546428.97
 547175.76 178040.49 555787.97
 476344.23 310073.76 562983.52
 376348.41 423432.71 564859.82
 264769.37 505300.71 560863.95
 176826.97 549104.41 554271.21
 376520.38 -429406.44 560216.49
 423432.71 -376348.42 564859.82
 470620.59 -283776.65 581366.56
 497890.48 -154522.69 606817.77
 494412.59 5339.6202 628909.91
 454423.64 179206.87 633548.78
 380117.90 341785.01 615380.69
 283776.65 470620.59 581366.56
 186047.87 555441.51 544858.62
 115376.01 597212.53 519639.84
 277561.04 -527011.97 534058.29
 310073.76 -476344.23 562983.52
 341785.01 -380117.90 615380.69
 356844.64 -234197.95 676618.97
 345276.44 -43389.960 720348.17
 302636.24 166726.76 721535.51
 234197.95 356844.64 676618.96
 154522.69 497890.48 606817.77
 81495.106 583960.21 540693.10
 33147.658 623783.52 499795.32
 169727.76 -591831.83 510810.70
 178040.49 -547175.76 555787.97
 179206.87 -454423.64 633548.78
 166726.76 -302636.24 721535.51
 137952.80 -94497.670 782329.35
 94497.672 137952.80 782329.35
 43389.959 345276.44 720348.17
 -5339.6191 494412.59 628909.91
 -42935.956 582727.97 546428.97
 -63703.679 623104.32 497677.45
 63703.679 -623104.32 497677.45
 42935.956 -582727.97 546428.97
 5339.6191 -494412.59 628909.91
 -43389.960 -345276.44 720348.17
 -94497.670 -137952.80 782329.35
 -137952.81 94497.670 782329.35
 -166726.76 302636.25 721535.51
 -179206.87 454423.64 633548.78
 -178040.49 547175.76 555787.97
 -169727.76 591831.83 510810.70
 -33147.658 -623783.51 499795.32
 -81495.105 -583960.21 540693.09
 -154522.69 -497890.48 606817.77
 -234197.95 -356844.64 676618.97
 -302636.24 -166726.76 721535.51
 -345276.44 43389.960 720348.17
 -356844.64 234197.95 676618.96
 -341785.00 380117.91 615380.69
 -310073.76 476344.23 562983.52
 -277561.04 527011.97 534058.29
 -115376.01 -597212.54 519639.84
 -186047.87 -555441.51 544858.62
 -283776.65 -470620.59 581366.56
 -380117.90 -341785.01 615380.69
 -454423.64 -179206.87 633548.78
 -494412.59 -5339.6198 628909.91
 -497890.48 154522.69 606817.77
 -470620.59 283776.64 581366.56
 -423432.70 376348.42 564859.82
 -376520.38 429406.44 560216.49
 -176826.97 -549104.41 554271.21
 -264769.37 -505300.71 560863.95
 -376348.42 -423432.70 564859.82
 -476344.23 -310073.76 562983.52
 -547175.76 -178040.49 555787.97
 -582727.97 -42935.956 546428.97
 -583960.21 81495.105 540693.09
 -555441.51 186047.87 544858.62
 -505300.71 264769.37 560863.95
 -453498.84 311451.94 580806.76
 -209558.41 -497466.25 590434.25
 -311451.94 -453498.84 580806.76
 -429406.44 -376520.38 560216.49
 -527011.97 -277561.04 534058.29
 -591831.84 -169727.76 510810.70
 -623104.32 -63703.679 497677.45
 -623783.51 33147.658 499795.32
 -597212.53 115376.01 519639.84
 -549104.41 176826.97 554271.21
 -497466.25 209558.41 590434.25
 436396.78 -263848.49 616394.21
 496239.29 -226777.15 585080.07
 555341.40 -162102.79 552556.43
 593273.05 -79335.794 530785.20
 604200.18 14808.860 524140.10
 585943.20 115582.56 532269.89
 536571.82 217645.73 552015.41
 456387.39 312948.55 577731.56
 354953.53 390052.13 601554.09
 263848.49 436396.78 616394.21
 390052.13 -354953.53 601554.09
 447230.33 -306271.58 588372.97
 506415.88 -226064.52 576574.18
 545706.64 -122703.83 571968.55
 556934.86 -3124.3174 574294.18
 536530.86 124737.89 580150.92
 483638.50 250543.42 585936.69
 402316.62 362056.29 589115.08
 306271.58 447230.34 588372.97
 226777.15 496239.29 585080.07
 312948.55 -456387.39 577731.56
 362056.29 -402316.62 589115.08
 415171.83 -309266.40 609907.08
 451545.52 -183113.91 634488.72
 461039.38 -31615.659 653026.14
 438804.63 131221.88 655920.20
 385550.12 286244.68 639855.52
 309266.40 415171.83 609907.08
 226064.52 506415.88 576574.18
 162102.79 555341.40 552556.43
 217645.73 -536571.82 552015.41
 250543.42 -483638.50 585936.69
 286244.68 -385550.12 639855.52
 309560.59 -243164.63 696450.43
 311840.48 -64421.475 733897.40
 289032.13 129556.76 734626.08
 243164.63 309560.60 696450.43
 183113.92 451545.51 634488.72
 122703.83 545706.65 571968.55
 79335.795 593273.04 530785.20
 115582.56 -585943.20 532269.89
 124737.89 -536530.86 580150.92
 131221.88 -438804.63 655920.20
 129556.76 -289032.13 734626.08
 117453.99 -94855.525 785625.22
 94855.524 117453.99 785625.22
 64421.477 311840.48 733897.40
 31615.656 461039.38 653026.14
 3124.3195 556934.86 574294.18
 -14808.861 604200.18 524140.10
 14808.861 -604200.18 524140.10
 -3124.3195 -556934.86 574294.18
 -31615.656 -461039.38 653026.14
 -64421.477 -311840.48 733897.40
 -94855.525 -117453.99 785625.22
 -117453.99 94855.524 785625.22
 -129556.76 289032.13 734626.08
 -131221.88 438804.63 655920.20
 -124737.89 536530.86 580150.92
 -115582.56 585943.20 532269.89
 -79335.795 -593273.05 530785.20
 -122703.83 -545706.64 571968.56
 -183113.91 -451545.52 634488.72
 -243164.63 -309560.60 696450.43
 -289032.13 -129556.76 734626.08
 -311840.48 64421.476 733897.40
 -309560.59 243164.63 696450.43
 -286244.68 385550.12 639855.52
 -250543.42 483638.50 585936.69
 -217645.73 536571.82 552015.41
 -162102.79 -555341.40 552556.43
 -226064.52 -506415.88 576574.18
 -309266.40 -415171.83 609907.08
 -385550.12 -286244.68 639855.52
 -438804.63 -131221.88 655920.20
 -461039.37 31615.658 653026.14
 -451545.52 183113.91 634488.72
 -415171.83 309266.40 609907.08
 -362056.29 402316.62 589115.08
 -312948.55 456387.39 577731.56
 -226777.15 -496239.29 585080.07
 -306271.58 -447230.34 588372.97
 -402316.62 -362056.29 589115.08
 -483638.49 -250543.42 585936.69
 -536530.86 -124737.89 580150.92
 -556934.86 3124.3178 574294.18
 -545706.64 122703.83 571968.56
 -506415.88 226064.52 576574.18
 -447230.33 306271.58 588372.97
 -390052.13 354953.54 601554.09
 -263848.49 -436396.78 616394.21
 -354953.53 -390052.13 601554.09
 -456387.39 -312948.55 577731.56
 -536571.82 -217645.73 552015.41
 -585943.20 -115582.56 532269.89
 -604200.18 -14808.860 524140.10
 -593273.05 79335.794 530785.20
 -555341.40 162102.79 552556.43
 -496239.29 226777.15 585080.07
 -436396.78 263848.49 616394.21
 376166.29 -318959.05 629892.09
 445491.93 -277365.27 603825.68
 516981.79 -208111.99 573950.55
 567288.66 -122397.67 550638.17
 590049.06 -28139.078 539490.78
 584072.11 69696.105 542219.72
 548699.33 166803.32 557768.50
 484448.14 257107.07 582413.90
 398849.93 331039.56 609369.79
 318959.05 376166.29 629892.09
 331039.56 -398849.93 609369.79
 394679.08 -348535.94 602288.24
 464285.13 -265904.50 594755.51
 515513.90 -161117.06 590158.21
 539345.09 -42734.791 589305.20
 532737.17 81124.134 591278.26
 495367.93 201847.53 594868.21
 430365.77 309836.70 598987.91
 348535.94 394679.08 602288.24
 277365.27 445491.93 603825.68
 257107.07 -484448.14 582413.90
 309836.70 -430365.78 598987.91
 370695.45 -336698.16 623874.37
 417750.06 -211036.29 648805.49
 440150.25 -62925.248 665062.53
 433080.91 94014.930 666034.62
 396689.58 243598.77 650612.80
 336698.16 370695.45 623874.37
 265904.50 464285.13 594755.51
 208111.99 516981.78 573950.55
 166803.32 -548699.33 557768.50
 201847.53 -495367.93 594868.21
 243598.77 -396689.58 650612.80
 276664.71 -255884.83 705676.69
 291918.97 -82808.842 740220.24
 284821.34 102915.01 740462.90
 255884.83 276664.71 705676.69
 211036.28 417750.07 648805.49
 161117.07 515513.90 590158.21
 122397.67 567288.66 550638.17
 69696.106 -584072.10 542219.72
 81124.132 -532737.17 591278.26
 94014.933 -433080.91 666034.62
 102915.01 -284821.34 740462.90
 104623.85 -97698.669 787088.83
 97698.670 104623.85 787088.83
 82808.840 291918.98 740220.24
 62925.251 440150.25 665062.53
 42734.789 539345.09 589305.19
 28139.079 590049.06 539490.78
 -28139.079 -590049.06 539490.78
 -42734.789 -539345.09 589305.20
 -62925.251 -440150.25 665062.53
 -82808.840 -291918.97 740220.24
 -97698.669 -104623.85 787088.83
 -104623.85 97698.671 787088.83
 -102915.01 284821.34 740462.90
 -94014.933 433080.91 666034.62
 -81124.132 532737.16 591278.27
 -69696.106 584072.11 542219.72
 -122397.67 -567288.66 550638.17
 -161117.07 -515513.90 590158.21
 -211036.28 -417750.07 648805.49
 -255884.83 -276664.71 705676.69
 -284821.34 -102915.01 740462.90
 -291918.97 82808.840 740220.24
 -276664.71 255884.83 705676.69
 -243598.77 396689.58 650612.80
 -201847.53 495367.93 594868.21
 -166803.32 548699.33 557768.50
 -208111.99 -516981.79 573950.55
 -265904.50 -464285.13 594755.51
 -336698.16 -370695.45 623874.37
 -396689.58 -243598.77 650612.80
 -433080.91 -94014.931 666034.62
 -440150.25 62925.249 665062.53
 -417750.06 211036.28 648805.49
 -370695.45 336698.16 623874.37
 -309836.70 430365.77 598987.92
 -257107.07 484448.14 582413.90
 -277365.27 -445491.93 603825.68
 -348535.94 -394679.08 602288.24
 -430365.77 -309836.70 598987.92
 -495367.93 -201847.53 594868.21
 -532737.16 -81124.134 591278.27
 -539345.09 42734.791 589305.20
 -515513.90 161117.06 590158.21
 -464285.13 265904.50 594755.51
 -394679.08 348535.94 602288.24
 -331039.56 398849.93 609369.79
 -318959.05 -376166.29 629892.09
 -398849.93 -331039.56 609369.79
 -484448.14 -257107.07 582413.90
 -548699.33 -166803.32 557768.50
 -584072.11 -69696.105 542219.72
 -590049.06 28139.078 539490.78
 -567288.66 122397.67 550638.17
 -516981.79 208111.99 573950.55
 -445491.93 277365.26 603825.68
 -376166.29 318959.05 629892.09
 318959.05 -376166.29 629892.09
 398849.93 -331039.56 609369.79
 484448.14 -257107.07 582413.90
 548699.33 -166803.32 557768.50
 584072.11 -69696.106 542219.72
 590049.06 28139.079 539490.78
 567288.66 122397.67 550638.17
 516981.79 208111.99 573950.55
 445491.93 277365.27 603825.68
 376166.29 318959.05 629892.09
 277365.27 -445491.93 603825.68
 348535.94 -394679.08 602288.24
 430365.77 -309836.69 598987.92
 495367.93 -201847.53 594868.21
 532737.17 -81124.132 591278.27
 539345.09 42734.790 589305.20
 515513.90 161117.06 590158.21
 464285.13 265904.50 594755.51
 394679.08 348535.94 602288.24
 331039.56 398849.93 609369.79
 208111.99 -516981.79 573950.55
 265904.50 -464285.13 594755.51
 336698.16 -370695.45 623874.37
 396689.58 -243598.77 650612.80
 433080.91 -94014.933 666034.62
 440150.25 62925.251 665062.53
 417750.07 211036.28 648805.49
 370695.45 336698.16 623874.37
 309836.70 430365.77 598987.92
 257107.07 484448.14 582413.90
 122397.67 -567288.65 550638.17
 161117.06 -515513.90 590158.21
 211036.28 -417750.06 648805.49
 255884.83 -276664.71 705676.69
 284821.34 -102915.01 740462.90
 291918.97 82808.838 740220.24
 276664.71 255884.83 705676.69
 243598.77 396689.58 650612.80
 201847.53 495367.93 594868.21
 166803.32 548699.33 557768.50
 28139.078 -590049.06 539490.78
 42734.790 -539345.09 589305.20
 62925.249 -440150.25 665062.53
 82808.841 -291918.97 740220.24
 97698.669 -104623.85 787088.83
 104623.85 97698.672 787088.83
 102915.01 284821.34 740462.90
 94014.931 433080.91 666034.62
 81124.134 532737.16 591278.27
 69696.105 584072.11 542219.72
 -69696.105 -584072.10 542219.72
 -81124.134 -532737.17 591278.26
 -94014.931 -433080.91 666034.62
 -102915.01 -284821.34 740462.90
 -104623.85 -97698.669 787088.83
 -97698.669 104623.85 787088.83
 -82808.841 291918.97 740220.24
 -62925.249 440150.25 665062.53
 -42734.790 539345.09 589305.19
 -28139.079 590049.06 539490.78
 -166803.32 -548699.33 557768.50
 -201847.53 -495367.93 594868.21
 -243598.77 -396689.58 650612.80
 -276664.71 -255884.83 705676.69
 -291918.97 -82808.841 740220.24
 -284821.34 102915.01 740462.90
 -255884.82 276664.71 705676.69
 -211036.28 417750.07 648805.49
 -161117.07 515513.90 590158.21
 -122397.67 567288.66 550638.17
 -257107.07 -484448.14 582413.90
 -309836.70 -430365.77 598987.91
 -370695.45 -336698.16 623874.37
 -417750.07 -211036.28 648805.49
 -440150.25 -62925.249 665062.53
 -433080.91 94014.931 666034.62
 -396689.58 243598.77 650612.80
 -336698.16 370695.45 623874.37
 -265904.50 464285.13 594755.51
 -208111.99 516981.79 573950.55
 -331039.56 -398849.93 609369.79
 -394679.08 -348535.94 602288.24
 -464285.13 -265904.50 594755.51
 -515513.90 -161117.06 590158.21
 -539345.09 -42734.790 589305.19
 -532737.16 81124.133 591278.27
 -495367.93 201847.53 594868.21
 -430365.77 309836.70 598987.92
 -348535.94 394679.08 602288.24
 -277365.26 445491.93 603825.68
 -376166.29 -318959.05 629892.09
 -445491.93 -277365.27 603825.68
 -516981.78 -208111.99 573950.55
 -567288.66 -122397.67 550638.17
 -590049.06 -28139.078 539490.78
 -584072.11 69696.106 542219.72
 -548699.33 166803.32 557768.50
 -484448.14 257107.07 582413.90
 -398849.93 331039.56 609369.79
 -318959.05 376166.29 629892.09
 263848.49 -436396.78 616394.21
 354953.53 -390052.13 601554.09
 456387.39 -312948.55 577731.56
 536571.82 -217645.73 552015.41
 585943.20 -115582.56 532269.89
 604200.18 -14808.860 524140.10
 593273.05 79335.794 530785.20
 555341.40 162102.79 552556.43
 496239.29 226777.15 585080.07
 436396.78 263848.49 616394.21
 226777.15 -496239.29 585080.07
 306271.58 -447230.33 588372.97
 402316.62 -362056.29 589115.08
 483638.50 -250543.42 585936.69
 536530.86 -124737.89 580150.92
 556934.86 3124.3190 574294.18
 545706.64 122703.83 571968.56
 506415.88 226064.52 576574.18
 447230.33 306271.58 588372.97
 390052.13 354953.53 601554.09
 162102.79 -555341.40 552556.43
 226064.52 -506415.88 576574.18
 309266.40 -415171.83 609907.08
 385550.12 -286244.68 639855.52
 438804.63 -131221.88 655920.20
 461039.38 31615.656 653026.14
 451545.52 183113.91 634488.72
 415171.83 309266.40 609907.08
 362056.29 402316.62 589115.08
 312948.55 456387.39 577731.56
 79335.794 -593273.05 530785.20
 122703.83 -545706.64 571968.56
 183113.91 -451545.52 634488.72
 243164.63 -309560.59 696450.43
 289032.13 -129556.76 734626.08
 311840.48 64421.478 733897.40
 309560.59 243164.63 696450.43
 286244.68 385550.12 639855.52
 250543.42 483638.50 585936.69
 217645.73 536571.82 552015.41
 -14808.860 -604200.18 524140.10
 3124.3179 -556934.86 574294.18
 31615.658 -461039.38 653026.14
 64421.475 -311840.48 733897.40
 94855.525 -117453.99 785625.22
 117453.99 94855.522 785625.22
 129556.76 289032.13 734626.08
 131221.88 438804.63 655920.20
 124737.89 536530.86 580150.92
 115582.56 585943.20 532269.89
 -115582.56 -585943.20 532269.89
 -124737.89 -536530.86 580150.92
 -131221.88 -438804.63 655920.20
 -129556.76 -289032.13 734626.08
 -117453.99 -94855.525 785625.22
 -94855.524 117453.99 785625.22
 -64421.476 311840.48 733897.40
 -31615.657 461039.38 653026.14
 -3124.3187 556934.86 574294.18
 14808.860 604200.18 524140.10
 -217645.73 -536571.82 552015.41
 -250543.42 -483638.50 585936.69
 -286244.68 -385550.12 639855.52
 -309560.59 -243164.63 696450.43
 -311840.48 -64421.475 733897.40
 -289032.13 129556.76 734626.08
 -243164.63 309560.59 696450.43
 -183113.91 451545.52 634488.72
 -122703.83 545706.64 571968.55
 -79335.795 593273.05 530785.20
 -312948.55 -456387.39 577731.56
 -362056.29 -402316.62 589115.08
 -415171.83 -309266.40 609907.08
 -451545.52 -183113.91 634488.72
 -461039.38 -31615.659 653026.14
 -438804.63 131221.88 655920.20
 -385550.12 286244.68 639855.52
 -309266.40 415171.83 609907.08
 -226064.52 506415.88 576574.18
 -162102.79 555341.40 552556.43
 -390052.13 -354953.53 601554.09
 -447230.34 -306271.58 588372.97
 -506415.88 -226064.52 576574.18
 -545706.65 -122703.83 571968.55
 -556934.86 -3124.3172 574294.18
 -536530.86 124737.89 580150.92
 -483638.50 250543.42 585936.69
 -402316.62 362056.29 589115.08
 -306271.58 447230.34 588372.97
 -226777.15 496239.29 585080.07
 -436396.78 -263848.49 616394.21
 -496239.29 -226777.15 585080.07
 -555341.40 -162102.79 552556.43
 -593273.04 -79335.794 530785.20
 -604200.18 14808.860 524140.10
 -585943.20 115582.56 532269.89
 -536571.82 217645.73 552015.41
 -456387.39 312948.55 577731.56
 -354953.53 390052.13 601554.09
 -263848.49 436396.78 616394.21
 209558.41 -497466.25 590434.25
 311451.94 -453498.84 580806.76
 429406.44 -376520.38 560216.49
 527011.97 -277561.04 534058.29
 591831.83 -169727.76 510810.70
 623104.32 -63703.679 497677.45
 623783.51 33147.658 499795.32
 597212.54 115376.01 519639.84
 549104.41 176826.97 554271.21
 497466.25 209558.41 590434.24
 176826.97 -549104.41 554271.21
 264769.37 -505300.71 560863.95
 376348.42 -423432.70 564859.82
 476344.23 -310073.76 562983.52
 547175.76 -178040.49 555787.97
 582727.97 -42935.957 546428.97
 583960.21 81495.106 540693.09
 555441.51 186047.87 544858.62
 505300.71 264769.37 560863.95
 453498.84 311451.94 580806.76
 115376.01 -597212.53 519639.84
 186047.87 -555441.51 544858.62
 283776.65 -470620.59 581366.56
 380117.90 -341785.00 615380.69
 454423.64 -179206.87 633548.78
 494412.59 -5339.6170 628909.91
 497890.48 154522.69 606817.77
 470620.59 283776.65 581366.56
 423432.70 376348.42 564859.82
 376520.38 429406.44 560216.49
 33147.659 -623783.52 499795.32
 81495.104 -583960.21 540693.10
 154522.69 -497890.48 606817.77
 234197.95 -356844.64 676618.96
 302636.24 -166726.76 721535.51
 345276.44 43389.957 720348.17
 356844.64 234197.95 676618.96
 341785.00 380117.90 615380.69
 310073.76 476344.23 562983.52
 277561.04 527011.97 534058.29
 -63703.680 -623104.32 497677.45
 -42935.954 -582727.97 546428.97
 -5339.6210 -494412.59 628909.91
 43389.961 -345276.44 720348.17
 94497.670 -137952.81 782329.35
 137952.80 94497.672 782329.35
 166726.76 302636.24 721535.51
 179206.87 454423.64 633548.78
 178040.49 547175.76 555787.97
 169727.76 591831.83 510810.70
 -169727.76 -591831.84 510810.70
 -178040.49 -547175.76 555787.97
 -179206.87 -454423.64 633548.78
 -166726.76 -302636.24 721535.51
 -137952.80 -94497.670 782329.35
 -94497.670 137952.80 782329.35
 -43389.961 345276.44 720348.17
 5339.6205 494412.59 628909.91
 42935.955 582727.97 546428.97
 63703.680 623104.32 497677.45
 -277561.04 -527011.97 534058.29
 -310073.76 -476344.23 562983.52
 -341785.00 -380117.90 615380.69
 -356844.64 -234197.95 676618.96
 -345276.44 -43389.961 720348.17
 -302636.25 166726.76 721535.51
 -234197.95 356844.64 676618.96
 -154522.69 497890.48 606817.77
 -81495.104 583960.21 540693.10
 -33147.658 623783.52 499795.32
 -376520.38 -429406.44 560216.49
 -423432.70 -376348.41 564859.82
 -470620.59 -283776.65 581366.56
 -497890.48 -154522.69 606817.77
 -494412.59 5339.6206 628909.91
 -454423.64 179206.87 633548.78
 -380117.91 341785.00 615380.69
 -283776.64 470620.59 581366.56
 -186047.87 555441.51 544858.62
 -115376.01 597212.53 519639.84
 -453498.84 -311451.94 580806.76
 -505300.71 -264769.37 560863.95
 -555441.51 -186047.87 544858.62
 -583960.21 -81495.105 540693.10
 -582727.97 42935.955 546428.97
 -547175.76 178040.49 555787.97
 -476344.23 310073.76 562983.52
 -376348.42 423432.70 564859.82
 -264769.37 505300.71 560863.95
 -176826.97 549104.41 554271.21
 -497466.25 -209558.41 590434.25
 -549104.41 -176826.97 554271.21
 -597212.53 -115376.01 519639.84
 -623783.52 -33147.658 499795.32
 -623104.32 63703.680 497677.45
 -591831.83 169727.76 510810.70
 -527011.97 277561.04 534058.29
 -429406.44 376520.38 560216.49
 -311451.94 453498.84 580806.76
 -209558.41 497466.25 590434.25
 158427.59 -553403.30 555558.72
 269101.66 -515388.31 549508.13
 401440.51 -442518.41 531999.04
 515470.27 -342920.29 506651.83
 595800.43 -230457.79 481571.45
 640368.44 -118344.42 464675.01
 652458.34 -16573.606 462626.66
 636472.32 67837.488 479896.93
 598268.12 128496.03 515329.05
 553403.30 158427.59 555558.72
 128496.03 -598268.11 515329.05
 224467.37 -562693.28 522485.09
 350751.75 -487913.78 528122.48
 469297.63 -375933.92 527667.91
 558858.26 -238836.62 520225.44
 610243.89 -95146.584 508477.65
 623629.20 36955.501 499720.83
 604805.11 145550.06 503016.86
 562693.28 224467.37 522485.09
 515388.31 269101.66 549508.13
 67837.488 -636472.32 479896.93
 145550.06 -604805.11 503016.86
 258180.22 -530577.05 540213.82
 376168.87 -405694.23 577848.74
 474494.09 -236428.35 599130.20
 534414.71 -48754.762 593316.01
 550558.80 123287.14 567173.07
 530577.05 258180.22 540213.82
 487913.78 350751.75 528122.48
 442518.41 401440.51 531999.04
 -16573.607 -652458.34 462626.66
 36955.504 -623629.21 499720.83
 123287.14 -550558.79 567173.07
 225487.67 -414962.43 645725.55
 322129.15 -214323.95 700212.86
 389250.10 17648.160 698693.71
 414962.43 225487.67 645725.55
 405694.23 376168.87 577848.74
 375933.92 469297.63 527667.91
 342920.29 515470.27 506651.83
 -118344.42 -640368.44 464675.01
 -95146.588 -610243.89 508477.65
 -48754.757 -534414.72 593316.01
 17648.157 -389250.10 698693.71
 95155.361 -166180.36 776742.91
 166180.36 95155.359 776742.91
 214323.95 322129.15 700212.86
 236428.35 474494.09 599130.20
 238836.62 558858.26 520225.44
 230457.79 595800.43 481571.45
 -230457.79 -595800.43 481571.45
 -238836.62 -558858.27 520225.44
 -236428.35 -474494.09 599130.20
 -214323.95 -322129.15 700212.86
 -166180.36 -95155.361 776742.91
 -95155.361 166180.36 776742.91
 -17648.157 389250.10 698693.71
 48754.757 534414.71 593316.01
 95146.587 610243.89 508477.65
 118344.42 640368.44 464675.01
 -342920.29 -515470.27 506651.83
 -375933.92 -469297.63 527667.91
 -405694.23 -376168.87 577848.74
 -414962.43 -225487.67 645725.56
 -389250.10 -17648.158 698693.71
 -322129.15 214323.95 700212.86
 -225487.67 414962.43 645725.55
 -123287.13 550558.80 567173.07
 -36955.504 623629.20 499720.83
 16573.607 652458.34 462626.66
 -442518.41 -401440.51 531999.04
 -487913.78 -350751.75 528122.48
 -530577.05 -258180.22 540213.82
 -550558.80 -123287.14 567173.07
 -534414.71 48754.759 593316.01
 -474494.09 236428.35 599130.20
 -376168.87 405694.23 577848.74
 -258180.22 530577.05 540213.82
 -145550.06 604805.11 503016.86
 -67837.489 636472.32 479896.93
 -515388.31 -269101.66 549508.13
 -562693.28 -224467.37 522485.09
 -604805.11 -145550.06 503016.86
 -623629.20 -36955.502 499720.83
 -610243.89 95146.587 508477.65
 -558858.26 238836.62 520225.44
 -469297.63 375933.92 527667.91
 -350751.75 487913.78 528122.48
 -224467.38 562693.28 522485.09
 -128496.03 598268.11 515329.05
 -553403.30 -158427.59 555558.72
 -598268.12 -128496.03 515329.05
 -636472.32 -67837.488 479896.93
 -652458.34 16573.606 462626.66
 -640368.44 118344.42 464675.01
 -595800.43 230457.79 481571.45
 -515470.27 342920.29 506651.83
 -401440.51 442518.41 531999.04
 -269101.66 515388.31 549508.13
 -158427.59 553403.30 555558.72
 120663.28 -595088.46 520874.36
 236984.68 -563279.63 516288.98
 377379.53 -495956.47 501609.28
 502134.17 -398487.62 478611.42
 594185.94 -284121.79 454112.19
 649728.06 -167329.63 435722.66
 671393.26 -60287.135 430809.18
 664124.09 28130.523 445138.03