# OOMMF OVF 2.0
#
# Segment count: 1
#
# Begin: Segment
# Begin: Header
#
# Title: Oxs_MinDriver::Magnetization
# Desc: Oxs vector field output
# Desc:  MIF source file: /home/ryan/Git/joommf/tools/omfvis/cube_example.mif
# Desc:  Iteration: 3880, State id: 8122
# Desc:  Stage: 18, Stage iteration: 104
# Desc:  Stage simulation time: 0 s
# Desc:  Total simulation time: -2 s
# meshunit: m
# meshtype: rectangular
# xbase: 2.5000000000000001e-09
# ybase: 2.5000000000000001e-09
# zbase: 2.5000000000000001e-09
# xnodes: 10
# ynodes: 10
# znodes: 10
# xstepsize: 5.0000000000000001e-09
# ystepsize: 5.0000000000000001e-09
# zstepsize: 5.0000000000000001e-09
# xmin: 0
# ymin: 0
# zmin: 0
# xmax: 4.9999999999999998e-08
# ymax: 4.9999999999999998e-08
# zmax: 4.9999999999999998e-08
# valuedim: 3
# valuelabels: Magnetization_x Magnetization_y Magnetization_z
# valueunits: A/m A/m A/m
#
# End: Header
#
# Begin: Data Text
 507773.20 19133.621 617899.90
 534608.68 36089.300 594046.39
 550253.37 77257.067 575545.46
 543478.06 140391.11 570019.24
 507788.79 220182.22 577642.05
 439058.48 307908.51 593649.73
 337521.20 391277.69 610721.88
 211590.71 456911.92 621659.77
 81174.944 495499.93 622808.52
 -19133.621 507773.20 617899.90
 495499.93 -81174.944 622808.52
 522794.93 -54571.535 603081.59
 538419.83 1147.3843 591694.83
 530143.78 84380.122 593150.54
 490179.24 188763.04 603401.05
 414568.51 301338.81 614270.19
 306708.06 404076.08 618589.27
 179463.48 480541.55 613899.57
 54571.535 522794.93 603081.59
 -36089.300 534608.68 594046.39
 456911.92 -211590.71 621659.77
 480541.55 -179463.48 613899.57
 492663.64 -110631.88 620518.43
 480010.90 -4790.1735 639973.90
 432742.87 131014.26 659976.42
 347731.76 276669.32 665234.33
 234081.71 404029.59 649588.98
 110631.88 492663.64 620518.43
 -1147.3843 538419.83 591694.83
 -77257.067 550253.37 575545.46
 391277.69 -337521.20 610721.88
 404076.08 -306708.06 618589.27
 404029.59 -234081.71 649588.98
 379269.48 -113790.98 695130.40
 319949.05 49269.889 731577.12
 226164.93 227343.74 732914.90
 113790.98 379269.48 695130.40
 4790.1735 480010.90 639973.90
 -84380.122 530143.78 593150.54
 -140391.11 543478.06 570019.24
 307908.51 -439058.47 593649.73
 301338.81 -414568.51 614270.19
 276669.32 -347731.76 665234.33
 227343.74 -226164.93 732914.90
 149142.22 -50030.900 784380.97
 50030.900 149142.22 784380.97
 -49269.889 319949.05 731577.12
 -131014.26 432742.87 659976.42
 -188763.04 490179.24 603401.05
 -220182.22 507788.79 577642.05
 220182.22 -507788.79 577642.05
 188763.04 -490179.24 603401.05
 131014.26 -432742.87 659976.42
 49269.889 -319949.05 731577.12
 -50030.900 -149142.22 784380.97
 -149142.22 50030.899 784380.97
 -227343.74 226164.93 732914.90
 -276669.32 347731.76 665234.33
 -301338.81 414568.51 614270.19
 -307908.51 439058.48 593649.73
 140391.11 -543478.06 570019.24
 84380.122 -530143.78 593150.54
 -4790.1735 -480010.90 639973.90
 -113790.98 -379269.48 695130.40
 -226164.93 -227343.74 732914.90
 -319949.05 -49269.889 731577.12
 -379269.48 113790.98 695130.40
 -404029.59 234081.71 649588.98
 -404076.08 306708.06 618589.27
 -391277.69 337521.20 610721.88
 77257.067 -550253.37 575545.46
 1147.3842 -538419.83 591694.83
 -110631.88 -492663.64 620518.43
 -234081.71 -404029.59 649588.98
 -347731.76 -276669.32 665234.33
 -432742.87 -131014.26 659976.42
 -480010.90 4790.1739 639973.90
 -492663.64 110631.88 620518.43
 -480541.55 179463.48 613899.57
 -456911.92 211590.71 621659.77
 36089.300 -534608.68 594046.39
 -54571.535 -522794.94 603081.59
 -179463.48 -480541.55 613899.57
 -306708.06 -404076.08 618589.27
 -414568.51 -301338.81 614270.19
 -490179.24 -188763.03 603401.05
 -530143.78 -84380.122 593150.54
 -538419.83 -1147.3839 591694.83
 -522794.93 54571.535 603081.59
 -495499.93 81174.944 622808.52
 19133.621 -507773.20 617899.90
 -81174.944 -495499.93 622808.52
 -211590.71 -456911.92 621659.77
 -337521.20 -391277.69 610721.88
 -439058.48 -307908.51 593649.73
 -507788.79 -220182.22 577642.05
 -543478.06 -140391.11 570019.24
 -550253.37 -77257.067 575545.46
 -534608.68 -36089.300 594046.39
 -507773.20 -19133.621 617899.90
 457072.36 -23329.137 656155.93
 489764.44 -9925.5645 632481.05
 513682.23 27312.485 612686.38
 515966.52 85462.110 605371.61
 490704.09 159459.45 611377.28
 434289.57 242085.38 626727.41
 346428.04 323198.30 644616.53
 233868.88 391034.39 657569.35
 114785.83 436193.26 660726.61
 23329.137 457072.36 656155.93
 436193.26 -114785.83 660726.61
 468289.11 -89093.460 642469.97
 490955.53 -37245.132 630535.86
 490935.59 39286.852 630427.47
 461929.58 135197.45 639016.99
 400862.78 240138.56 649340.05
 309985.55 339396.80 654766.19
 199523.92 418368.45 652041.45
 89093.459 468289.11 642469.97
 9925.5647 489764.44 632481.05
 391034.39 -233868.88 657569.35
 418368.44 -199523.92 652041.45
 435652.72 -133440.51 657571.55
 430153.03 -35788.613 673563.32
 395222.01 87618.294 690016.38
 328910.73 221355.99 694851.97
 237042.93 343465.86 682526.08
 133440.51 435652.72 657571.55
 37245.132 490955.53 630535.86
 -27312.485 513682.23 612686.38
 323198.30 -346428.04 644616.53
 339396.80 -309985.55 654766.19
 343465.86 -237042.93 682526.08
 325824.07 -124418.23 719971.37
 281498.57 22445.842 748501.66
 211272.96 182594.25 749681.98
 124418.23 325824.07 719971.37
 35788.613 430153.03 673563.32
 -39286.852 490935.59 630427.47
 -85462.110 515966.51 605371.61
 242085.38 -434289.57 626727.41
 240138.56 -400862.78 649340.05
 221355.99 -328910.73 694851.97
 182594.25 -211272.96 749681.98
 124205.28 -52067.661 788582.28
 52067.660 124205.28 788582.28
 -22445.842 281498.57 748501.66
 -87618.295 395222.01 690016.38
 -135197.45 461929.58 639016.99
 -159459.45 490704.09 611377.28
 159459.45 -490704.09 611377.28
 135197.45 -461929.58 639016.99
 87618.294 -395222.01 690016.38
 22445.841 -281498.57 748501.66
 -52067.660 -124205.28 788582.28
 -124205.28 52067.661 788582.28
 -182594.25 211272.96 749681.98
 -221355.99 328910.73 694851.97
 -240138.56 400862.78 649340.05
 -242085.38 434289.57 626727.41
 85462.110 -515966.52 605371.61
 39286.852 -490935.59 630427.47
 -35788.614 -430153.03 673563.32
 -124418.23 -325824.07 719971.37
 -211272.96 -182594.25 749681.98
 -281498.57 -22445.842 748501.66
 -325824.07 124418.23 719971.37
 -343465.86 237042.93 682526.08
 -339396.80 309985.55 654766.19
 -323198.30 346428.04 644616.53
 27312.485 -513682.23 612686.38
 -37245.132 -490955.53 630535.86
 -133440.51 -435652.72 657571.55
 -237042.93 -343465.86 682526.08
 -328910.73 -221355.99 694851.97
 -395222.01 -87618.294 690016.38
 -430153.03 35788.612 673563.32
 -435652.72 133440.51 657571.55
 -418368.45 199523.92 652041.45
 -391034.39 233868.88 657569.35
 -9925.5646 -489764.44 632481.05
 -89093.460 -468289.11 642469.97
 -199523.92 -418368.45 652041.45
 -309985.55 -339396.80 654766.19
 -400862.78 -240138.56 649340.05
 -461929.58 -135197.45 639016.99
 -490935.59 -39286.851 630427.47
 -490955.53 37245.130 630535.86
 -468289.11 89093.460 642469.97
 -436193.26 114785.83 660726.61
 -23329.137 -457072.36 656155.93
 -114785.83 -436193.26 660726.61
 -233868.88 -391034.39 657569.35
 -346428.04 -323198.30 644616.53
 -434289.56 -242085.38 626727.41
 -490704.09 -159459.45 611377.28
 -515966.51 -85462.110 605371.61
 -513682.23 -27312.484 612686.38
 -489764.44 9925.5643 632481.05
 -457072.36 23329.137 656155.93
 390468.72 -78414.510 693819.39
 428239.86 -64330.122 672660.58
 461170.10 -28466.775 653078.70
 474591.23 25745.389 643506.28
 462696.26 93519.451 645884.11
 422630.27 169193.81 657842.77
 353991.63 245310.59 674175.53
 261550.62 312764.22 688309.39
 159731.79 362826.42 694868.87
 78414.510 390468.72 693819.39
 362826.42 -159731.79 694868.87
 398259.42 -133438.38 680869.76
 428663.41 -83626.194 670264.38
 439453.32 -12863.744 668367.64
 424897.60 74073.516 673776.78
 382638.95 169421.36 681823.90
 313904.09 262470.01 687439.97
 225710.47 341705.40 687235.19
 133438.38 398259.42 680869.76
 64330.122 428239.86 672660.58
 312764.22 -261550.62 688309.39
 341705.40 -225710.47 687235.19
 365045.12 -161531.70 693288.95
 369850.28 -71508.577 705760.08
 350942.03 38929.954 717860.82
 306910.08 158639.09 721553.77
 240848.10 272179.92 712678.25
 161531.70 365045.12 693288.95
 83626.194 428663.41 670264.38
 28466.775 461170.10 653078.70
 245310.59 -353991.63 674175.53
 262470.01 -313904.08 687439.97
 272179.92 -240848.10 712678.25
 265635.38 -136170.50 742223.31
 239826.51 -6047.0344 763181.94
 195170.22 134639.32 764055.52
 136170.50 265635.38 742223.31
 71508.577 369850.28 705760.08
 12863.744 439453.32 668367.64
 -25745.389 474591.23 643506.28
 169193.81 -422630.27 657842.77
 169421.36 -382638.95 681823.90
 158639.09 -306910.08 721553.77
 134639.32 -195170.22 764055.52
 98690.636 -54095.334 792044.10
 54095.335 98690.636 792044.10
 6047.0333 239826.51 763181.94
 -38929.953 350942.03 717860.82
 -74073.517 424897.60 673776.78
 -93519.451 462696.26 645884.11
 93519.451 -462696.26 645884.11
 74073.517 -424897.60 673776.78
 38929.953 -350942.03 717860.82
 -6047.0329 -239826.51 763181.94
 -54095.335 -98690.636 792044.10
 -98690.636 54095.334 792044.10
 -134639.32 195170.22 764055.52
 -158639.09 306910.08 721553.77
 -169421.36 382638.95 681823.90
 -169193.81 422630.27 657842.77
 25745.389 -474591.23 643506.28
 -12863.745 -439453.32 668367.64
 -71508.576 -369850.28 705760.08
 -136170.50 -265635.38 742223.31
 -195170.22 -134639.32 764055.52
 -239826.51 6047.0344 763181.94
 -265635.38 136170.50 742223.31
 -272179.92 240848.10 712678.25
 -262470.01 313904.08 687439.97
 -245310.59 353991.63 674175.53
 -28466.775 -461170.10 653078.70
 -83626.194 -428663.41 670264.38
 -161531.70 -365045.12 693288.95
 -240848.10 -272179.92 712678.25
 -306910.08 -158639.09 721553.77
 -350942.03 -38929.954 717860.82
 -369850.28 71508.579 705760.08
 -365045.12 161531.70 693288.95
 -341705.40 225710.47 687235.19
 -312764.22 261550.62 688309.39
 -64330.122 -428239.86 672660.58
 -133438.38 -398259.42 680869.76
 -225710.47 -341705.40 687235.19
 -313904.09 -262470.01 687439.97
 -382638.95 -169421.36 681823.90
 -424897.60 -74073.516 673776.78
 -439453.32 12863.743 668367.64
 -428663.41 83626.196 670264.38
 -398259.42 133438.38 680869.76
 -362826.42 159731.79 694868.87
 -78414.510 -390468.72 693819.39
 -159731.79 -362826.42 694868.87
 -261550.62 -312764.22 688309.39
 -353991.63 -245310.59 674175.53
 -422630.27 -169193.81 657842.77
 -462696.26 -93519.451 645884.11
 -474591.23 -25745.389 643506.28
 -461170.10 28466.774 653078.70
 -428239.86 64330.123 672660.58
 -390468.72 78414.510 693819.39
 320310.01 -135586.36 720428.93
 363966.38 -117847.11 702595.57
 406624.04 -80112.199 684279.86
 432047.82 -26900.922 672763.72
 434197.62 36903.908 670902.77
 410769.90 106607.65 678161.41
 361496.24 176799.47 691420.58
 289637.57 240768.50 705790.77
 205965.83 290917.93 716201.67
 135586.36 320310.01 720428.93
 290917.93 -205965.83 716201.67
 330261.34 -177568.62 706680.15
 369017.09 -127121.93 698331.16
 391458.68 -58929.835 695188.74
 391658.36 22008.581 697222.60
 367514.98 109446.65 702106.95
 319614.07 195632.81 706805.95
 252519.63 271938.32 708719.54
 177568.62 330261.34 706680.15
 117847.11 363966.38 702595.57
 240768.50 -289637.57 705790.77
 271938.32 -252519.62 708719.54
 302169.19 -188741.83 716289.26
 318187.61 -103204.26 726708.70
 314827.51 -1725.1557 735445.89
 290528.12 107008.49 737660.21
 246725.11 211978.50 730884.29
 188741.83 302169.19 716289.26
 127121.93 369017.09 698331.16
 80112.199 406624.04 684279.86
 176799.47 -361496.24 691420.58
 195632.81 -319614.07 706805.95
 211978.50 -246725.11 730884.29
 217151.37 -147676.13 755669.93
 208050.35 -29336.215 771916.08
 184242.86 96983.206 772430.47
 147676.13 217151.37 755669.93
 103204.26 318187.61 726708.70
 58929.835 391458.68 695188.74
 26900.923 432047.82 672763.72
 106607.65 -410769.90 678161.41
 109446.65 -367514.98 702106.95
 107008.49 -290528.13 737660.21
 96983.209 -184242.86 772430.47
 79683.964 -56423.076 794019.46
 56423.075 79683.966 794019.46
 29336.217 208050.35 771916.08
 1725.1536 314827.51 735445.90
 -22008.579 391658.36 697222.60
 -36903.909 434197.62 670902.77
 36903.909 -434197.62 670902.77
 22008.578 -391658.36 697222.60
 -1725.1527 -314827.51 735445.89
 -29336.218 -208050.35 771916.08
 -56423.074 -79683.965 794019.46
 -79683.965 56423.075 794019.46
 -96983.209 184242.86 772430.47
 -107008.49 290528.13 737660.21
 -109446.65 367514.98 702106.95
 -106607.65 410769.90 678161.41
 -26900.923 -432047.82 672763.72
 -58929.834 -391458.68 695188.74
 -103204.26 -318187.61 726708.70
 -147676.13 -217151.37 755669.93
 -184242.86 -96983.208 772430.47
 -208050.35 29336.216 771916.08
 -217151.37 147676.13 755669.93
 -211978.50 246725.11 730884.29
 -195632.81 319614.07 706805.95
 -176799.47 361496.24 691420.58
 -80112.199 -406624.04 684279.86
 -127121.93 -369017.09 698331.16
 -188741.83 -302169.19 716289.26
 -246725.11 -211978.50 730884.28
 -290528.12 -107008.49 737660.21
 -314827.51 1725.1551 735445.89
 -318187.61 103204.25 726708.70
 -302169.19 188741.83 716289.26
 -271938.32 252519.62 708719.54
 -240768.50 289637.57 705790.77
 -117847.11 -363966.38 702595.57
 -177568.62 -330261.34 706680.15
 -252519.63 -271938.32 708719.54
 -319614.07 -195632.81 706805.95
 -367514.98 -109446.65 702106.95
 -391658.36 -22008.580 697222.60
 -391458.68 58929.837 695188.74
 -369017.09 127121.92 698331.16
 -330261.34 177568.63 706680.15
 -290917.93 205965.83 716201.67
 -135586.36 -320310.01 720428.93
 -205965.83 -290917.93 716201.67
 -289637.57 -240768.50 705790.77
 -361496.24 -176799.47 691420.58
 -410769.90 -106607.65 678161.41
 -434197.62 -36903.908 670902.77
 -432047.82 26900.922 672763.72
 -406624.04 80112.200 684279.86
 -363966.38 117847.11 702595.57
 -320310.01 135586.36 720428.93
 253984.94 -193209.55 733595.07
 304965.42 -170637.81 719637.99
 358884.10 -128827.04 703282.16
 397495.48 -73679.973 690339.49
 414040.81 -10647.643 684439.07
 406386.03 55753.961 686834.69
 374441.85 121139.56 696504.49
 320624.69 180341.14 710406.14
 253166.32 226947.89 724155.69
 193209.55 253984.94 733595.07
 226947.89 -253166.32 724155.69
 271514.10 -222013.33 719020.29
 319966.39 -168963.68 713493.36
 354985.94 -100049.26 709912.06
 369766.34 -21064.771 709104.45
 361981.00 62068.742 710716.00
 331802.14 143057.49 713751.99
 282309.85 215181.96 716936.45
 222013.33 271514.11 719020.29
 170637.81 304965.42 719637.99
 180341.14 -320624.69 710406.14
 215181.96 -282309.85 716936.45
 253577.14 -217530.57 726896.89
 281362.68 -132928.87 736997.26
 292501.67 -35170.868 743778.05
 284817.75 67763.955 744504.46
 258724.90 166940.82 738371.31
 217530.57 253577.14 726896.89
 168963.68 319966.39 713493.36
 128827.04 358884.10 703282.16
 121139.56 -374441.85 696504.49
 143057.49 -331802.14 713751.99
 166940.82 -258724.90 738371.31
 183572.85 -161958.85 761623.49
 188904.53 -49082.883 775825.98
 181520.09 69890.977 775993.37
 161958.85 183572.85 761623.49
 132928.86 281362.68 736997.26
 100049.26 354985.94 709912.06
 73679.973 397495.48 690339.49
 55753.962 -406386.03 686834.69
 62068.739 -361981.00 710716.00
 67763.959 -284817.75 744504.46
 69890.974 -181520.09 775993.37
 67443.123 -60315.656 794866.94
 60315.657 67443.121 794866.94
 49082.881 188904.53 775825.98
 35170.871 292501.67 743778.04
 21064.769 369766.34 709104.45
 10647.644 414040.81 684439.07
 -10647.644 -414040.81 684439.07
 -21064.768 -369766.34 709104.45
 -35170.872 -292501.67 743778.05
 -49082.880 -188904.53 775825.98
 -60315.658 -67443.123 794866.94
 -67443.122 60315.657 794866.94
 -69890.974 181520.09 775993.37
 -67763.958 284817.75 744504.46
 -62068.739 361981.00 710716.00
 -55753.962 406386.03 686834.69
 -73679.973 -397495.48 690339.49
 -100049.26 -354985.94 709912.06
 -132928.86 -281362.68 736997.26
 -161958.85 -183572.85 761623.49
 -181520.09 -69890.975 775993.37
 -188904.53 49082.882 775825.98
 -183572.85 161958.85 761623.49
 -166940.81 258724.90 738371.31
 -143057.49 331802.14 713751.99
 -121139.56 374441.85 696504.49
 -128827.04 -358884.10 703282.16
 -168963.68 -319966.39 713493.36
 -217530.57 -253577.14 726896.89
 -258724.90 -166940.82 738371.31
 -284817.75 -67763.957 744504.46
 -292501.67 35170.870 743778.05
 -281362.68 132928.87 736997.26
 -253577.14 217530.57 726896.89
 -215181.96 282309.85 716936.45
 -180341.14 320624.69 710406.14
 -170637.81 -304965.42 719637.99
 -222013.33 -271514.10 719020.29
 -282309.85 -215181.96 716936.45
 -331802.14 -143057.49 713751.99
 -361980.99 -62068.740 710716.00
 -369766.34 21064.770 709104.45
 -354985.94 100049.26 709912.06
 -319966.39 168963.68 713493.36
 -271514.11 222013.33 719020.29
 -226947.89 253166.32 724155.69
 -193209.55 -253984.94 733595.07
 -253166.32 -226947.89 724155.69
 -320624.69 -180341.14 710406.14
 -374441.85 -121139.56 696504.49
 -406386.03 -55753.962 686834.69
 -414040.81 10647.644 684439.07
 -397495.48 73679.974 690339.49
 -358884.10 128827.04 703282.16
 -304965.42 170637.81 719637.99
 -253984.94 193209.55 733595.07
 193209.55 -253984.94 733595.07
 253166.32 -226947.89 724155.69
 320624.69 -180341.14 710406.14
 374441.85 -121139.56 696504.49
 406386.03 -55753.962 686834.69
 414040.81 10647.644 684439.07
 397495.48 73679.973 690339.49
 358884.10 128827.04 703282.16
 304965.42 170637.81 719637.98
 253984.94 193209.55 733595.07
 170637.81 -304965.42 719637.99
 222013.33 -271514.11 719020.29
 282309.85 -215181.96 716936.45
 331802.14 -143057.49 713751.99
 361981.00 -62068.738 710716.00
 369766.34 21064.768 709104.45
 354985.94 100049.26 709912.06
 319966.39 168963.68 713493.36
 271514.10 222013.33 719020.29
 226947.89 253166.32 724155.69
 128827.04 -358884.10 703282.16
 168963.68 -319966.39 713493.36
 217530.57 -253577.14 726896.89
 258724.90 -166940.82 738371.31
 284817.75 -67763.959 744504.46
 292501.67 35170.872 743778.05
 281362.68 132928.87 736997.26
 253577.14 217530.57 726896.89
 215181.96 282309.85 716936.45
 180341.14 320624.69 710406.14
 73679.974 -397495.48 690339.49
 100049.26 -354985.94 709912.06
 132928.87 -281362.68 736997.26
 161958.85 -183572.85 761623.49
 181520.09 -69890.973 775993.37
 188904.53 49082.880 775825.98
 183572.85 161958.85 761623.49
 166940.82 258724.90 738371.31
 143057.49 331802.14 713751.99
 121139.56 374441.85 696504.49
 10647.643 -414040.81 684439.07
 21064.771 -369766.34 709104.45
 35170.868 -292501.67 743778.05
 49082.883 -188904.53 775825.98
 60315.656 -67443.124 794866.94
 67443.122 60315.657 794866.94
 69890.975 181520.09 775993.37
 67763.957 284817.75 744504.46
 62068.740 361981.00 710716.00
 55753.961 406386.03 686834.69
 -55753.961 -406386.03 686834.69
 -62068.742 -361981.00 710716.00
 -67763.955 -284817.75 744504.46
 -69890.977 -181520.09 775993.37
 -67443.121 -60315.656 794866.94
 -60315.657 67443.122 794866.94
 -49082.882 188904.53 775825.98
 -35170.870 292501.68 743778.04
 -21064.770 369766.34 709104.45
 -10647.643 414040.81 684439.07
 -121139.56 -374441.85 696504.49
 -143057.49 -331802.14 713751.99
 -166940.82 -258724.90 738371.31
 -183572.84 -161958.85 761623.49
 -188904.53 -49082.882 775825.98
 -181520.09 69890.975 775993.37
 -161958.85 183572.85 761623.49
 -132928.87 281362.68 736997.26
 -100049.26 354985.94 709912.06
 -73679.974 397495.48 690339.49
 -180341.14 -320624.69 710406.14
 -215181.96 -282309.85 716936.45
 -253577.14 -217530.57 726896.89
 -281362.68 -132928.87 736997.26
 -292501.67 -35170.870 743778.05
 -284817.75 67763.957 744504.46
 -258724.90 166940.81 738371.31
 -217530.57 253577.14 726896.89
 -168963.68 319966.39 713493.36
 -128827.04 358884.10 703282.16
 -226947.89 -253166.32 724155.69
 -271514.10 -222013.33 719020.29
 -319966.39 -168963.68 713493.36
 -354985.94 -100049.26 709912.06
 -369766.34 -21064.770 709104.45
 -361981.00 62068.740 710716.00
 -331802.14 143057.49 713751.99
 -282309.85 215181.96 716936.45
 -222013.33 271514.11 719020.29
 -170637.81 304965.42 719637.99
 -253984.94 -193209.55 733595.07
 -304965.42 -170637.81 719637.99
 -358884.10 -128827.04 703282.16
 -397495.48 -73679.973 690339.49
 -414040.81 -10647.643 684439.07
 -406386.03 55753.962 686834.69
 -374441.85 121139.56 696504.49
 -320624.69 180341.14 710406.14
 -253166.32 226947.89 724155.69
 -193209.55 253984.94 733595.07
 135586.36 -320310.01 720428.93
 205965.83 -290917.93 716201.67
 289637.57 -240768.50 705790.77
 361496.24 -176799.47 691420.58
 410769.90 -106607.65 678161.41
 434197.62 -36903.909 670902.77
 432047.82 26900.922 672763.72
 406624.04 80112.199 684279.86
 363966.38 117847.11 702595.57
 320310.01 135586.36 720428.93
 117847.11 -363966.38 702595.57
 177568.62 -330261.34 706680.15
 252519.62 -271938.32 708719.54
 319614.07 -195632.81 706805.95
 367514.98 -109446.65 702106.95
 391658.36 -22008.579 697222.60
 391458.68 58929.836 695188.74
 369017.09 127121.92 698331.16
 330261.34 177568.63 706680.15
 290917.93 205965.83 716201.67
 80112.199 -406624.04 684279.86
 127121.93 -369017.09 698331.16
 188741.83 -302169.19 716289.26
 246725.11 -211978.50 730884.29
 290528.13 -107008.49 737660.21
 314827.51 1725.1531 735445.89
 318187.61 103204.26 726708.70
 302169.19 188741.83 716289.26
 271938.32 252519.62 708719.54
 240768.50 289637.57 705790.77
 26900.922 -432047.82 672763.72
 58929.836 -391458.68 695188.74
 103204.26 -318187.61 726708.70
 147676.13 -217151.37 755669.93
 184242.86 -96983.209 772430.47
 208050.35 29336.217 771916.08
 217151.37 147676.13 755669.93
 211978.50 246725.11 730884.29
 195632.81 319614.07 706805.95
 176799.47 361496.24 691420.58
 -36903.908 -434197.62 670902.77
 -22008.581 -391658.36 697222.60
 1725.1562 -314827.51 735445.90
 29336.215 -208050.35 771916.08
 56423.076 -79683.964 794019.46
 79683.965 56423.075 794019.46
 96983.207 184242.86 772430.47
 107008.49 290528.13 737660.21
 109446.65 367514.98 702106.95
 106607.65 410769.90 678161.41
 -106607.65 -410769.90 678161.41
 -109446.65 -367514.98 702106.95
 -107008.49 -290528.12 737660.21
 -96983.206 -184242.86 772430.47
 -79683.966 -56423.076 794019.46
 -56423.075 79683.965 794019.46
 -29336.216 208050.35 771916.08
 -1725.1548 314827.51 735445.90
 22008.580 391658.36 697222.60
 36903.908 434197.62 670902.77
 -176799.47 -361496.24 691420.58
 -195632.81 -319614.07 706805.95
 -211978.50 -246725.11 730884.29
 -217151.37 -147676.13 755669.93
 -208050.35 -29336.216 771916.08
 -184242.86 96983.208 772430.47
 -147676.13 217151.37 755669.93
 -103204.26 318187.61 726708.70
 -58929.836 391458.68 695188.74
 -26900.922 432047.82 672763.72
 -240768.50 -289637.57 705790.77
 -271938.32 -252519.63 708719.54
 -302169.19 -188741.83 716289.26
 -318187.61 -103204.26 726708.70
 -314827.51 -1725.1549 735445.89
 -290528.13 107008.49 737660.21
 -246725.11 211978.50 730884.28
 -188741.83 302169.19 716289.26
 -127121.93 369017.09 698331.16
 -80112.199 406624.04 684279.86
 -290917.93 -205965.83 716201.67
 -330261.34 -177568.62 706680.15
 -369017.09 -127121.93 698331.16
 -391458.68 -58929.835 695188.74
 -391658.36 22008.580 697222.60
 -367514.98 109446.65 702106.95
 -319614.07 195632.81 706805.95
 -252519.62 271938.32 708719.54
 -177568.62 330261.34 706680.15
 -117847.11 363966.38 702595.57
 -320310.01 -135586.36 720428.93
 -363966.38 -117847.11 702595.57
 -406624.04 -80112.199 684279.86
 -432047.82 -26900.922 672763.72
 -434197.62 36903.908 670902.77
 -410769.90 106607.65 678161.41
 -361496.24 176799.47 691420.58
 -289637.57 240768.50 705790.77
 -205965.83 290917.93 716201.67
 -135586.36 320310.01 720428.93
 78414.509 -390468.72 693819.39
 159731.79 -362826.42 694868.87
 261550.62 -312764.22 688309.39
 353991.63 -245310.59 674175.53
 422630.27 -169193.81 657842.77
 462696.26 -93519.451 645884.11
 474591.23 -25745.389 643506.28
 461170.10 28466.774 653078.70
 428239.86 64330.123 672660.58
 390468.72 78414.510 693819.39
 64330.123 -428239.86 672660.58
 133438.38 -398259.42 680869.76
 225710.47 -341705.40 687235.19
 313904.08 -262470.01 687439.97
 382638.95 -169421.36 681823.90
 424897.60 -74073.517 673776.78
 439453.32 12863.743 668367.64
 428663.41 83626.196 670264.38
 398259.42 133438.38 680869.76
 362826.42 159731.79 694868.87
 28466.774 -461170.10 653078.70
 83626.196 -428663.41 670264.38
 161531.70 -365045.12 693288.95
 240848.10 -272179.92 712678.25
 306910.08 -158639.09 721553.77
 350942.03 -38929.953 717860.82
 369850.28 71508.578 705760.08
 365045.12 161531.70 693288.95
 341705.40 225710.47 687235.19
 312764.22 261550.62 688309.39
 -25745.388 -474591.23 643506.28
 12863.742 -439453.32 668367.64
 71508.579 -369850.28 705760.08
 136170.50 -265635.38 742223.31
 195170.22 -134639.32 764055.52
 239826.51 6047.0331 763181.94
 265635.38 136170.50 742223.31
 272179.92 240848.10 712678.25
 262470.01 313904.08 687439.97
 245310.59 353991.63 674175.53
 -93519.452 -462696.26 645884.11
 -74073.515 -424897.60 673776.78
 -38929.955 -350942.03 717860.82
 6047.0352 -239826.50 763181.94
 54095.333 -98690.637 792044.10
 98690.636 54095.335 792044.10
 134639.32 195170.22 764055.52
 158639.09 306910.08 721553.77
 169421.36 382638.95 681823.90
 169193.81 422630.27 657842.77
 -169193.81 -422630.27 657842.77
 -169421.36 -382638.95 681823.90
 -158639.09 -306910.08 721553.77
 -134639.32 -195170.22 764055.52
 -98690.635 -54095.334 792044.10
 -54095.335 98690.636 792044.10
 -6047.0340 239826.50 763181.94
 38929.954 350942.03 717860.82
 74073.516 424897.60 673776.78
 93519.451 462696.26 645884.11
 -245310.59 -353991.63 674175.53
 -262470.01 -313904.09 687439.97
 -272179.92 -240848.10 712678.25
 -265635.38 -136170.50 742223.31
 -239826.51 -6047.0341 763181.94
 -195170.22 134639.32 764055.52
 -136170.50 265635.38 742223.31
 -71508.578 369850.28 705760.08
 -12863.743 439453.32 668367.64
 25745.389 474591.23 643506.28
 -312764.22 -261550.62 688309.39
 -341705.40 -225710.47 687235.19
 -365045.12 -161531.70 693288.95
 -369850.28 -71508.577 705760.08
 -350942.03 38929.954 717860.82
 -306910.08 158639.09 721553.77
 -240848.10 272179.92 712678.25
 -161531.70 365045.12 693288.95
 -83626.195 428663.41 670264.38
 -28466.774 461170.10 653078.70
 -362826.42 -159731.78 694868.87
 -398259.42 -133438.38 680869.76
 -428663.41 -83626.194 670264.38
 -439453.32 -12863.744 668367.64
 -424897.60 74073.517 673776.78
 -382638.95 169421.36 681823.90
 -313904.09 262470.01 687439.97
 -225710.47 341705.40 687235.19
 -133438.38 398259.42 680869.76
 -64330.122 428239.86 672660.58
 -390468.72 -78414.510 693819.39
 -428239.86 -64330.122 672660.58
 -461170.10 -28466.775 653078.70
 -474591.23 25745.389 643506.28
 -462696.26 93519.451 645884.11
 -422630.27 169193.81 657842.77
 -353991.63 245310.59 674175.53
 -261550.62 312764.22 688309.39
 -159731.79 362826.42 694868.87
 -78414.510 390468.72 693819.39
 23329.137 -457072.36 656155.93
 114785.83 -436193.26 660726.61
 233868.88 -391034.39 657569.35
 346428.04 -323198.30 644616.53
 434289.57 -242085.38 626727.41
 490704.09 -159459.45 611377.28
 515966.52 -85462.110 605371.61
 513682.23 -27312.485 612686.38
 489764.44 9925.5642 632481.05
 457072.36 23329.137 656155.93
 9925.5640 -489764.44 632481.05
 89093.461 -468289.11 642469.97
 199523.92 -418368.45 652041.45
 309985.55 -339396.80 654766.19
 400862.78 -240138.56 649340.05
 461929.58 -135197.45 639016.99
 490935.59 -39286.852 630427.47
 490955.53 37245.131 630535.86
 468289.11 89093.460 642469.97
 436193.26 114785.83 660726.61
 -27312.484 -513682.23 612686.38
 37245.130 -490955.53 630535.86
 133440.51 -435652.72 657571.55
 237042.93 -343465.86 682526.08
 328910.73 -221355.99 694851.97
 395222.01 -87618.295 690016.38
 430153.03 35788.613 673563.32
 435652.72 133440.51 657571.55
 418368.44 199523.92 652041.45
 391034.39 233868.88 657569.35
 -85462.110 -515966.52 605371.61
 -39286.851 -490935.59 630427.47
 35788.612 -430153.03 673563.32
 124418.23 -325824.07 719971.37
 211272.96 -182594.25 749681.98
 281498.57 -22445.842 748501.66
 325824.07 124418.23 719971.37
 343465.86 237042.93 682526.08
 339396.80 309985.55 654766.19
 323198.30 346428.04 644616.53
 -159459.45 -490704.09 611377.28
 -135197.45 -461929.58 639016.99
 -87618.293 -395222.01 690016.38
 -22445.843 -281498.57 748501.66
 52067.661 -124205.28 788582.28
 124205.28 52067.660 788582.28
 182594.25 211272.96 749681.98
 221355.99 328910.73 694851.97
 240138.56 400862.78 649340.05
 242085.38 434289.57 626727.41
 -242085.38 -434289.57 626727.41
 -240138.56 -400862.78 649340.05
 -221355.99 -328910.73 694851.97
 -182594.25 -211272.96 749681.98
 -124205.28 -52067.661 788582.28
 -52067.660 124205.28 788582.28
 22445.842 281498.57 748501.66
 87618.294 395222.01 690016.38
 135197.45 461929.58 639016.99
 159459.45 490704.09 611377.28
 -323198.30 -346428.04 644616.53
 -339396.80 -309985.55 654766.19
 -343465.86 -237042.93 682526.08
 -325824.07 -124418.23 719971.37
 -281498.57 22445.842 748501.66
 -211272.96 182594.25 749681.98
 -124418.23 325824.07 719971.37
 -35788.613 430153.03 673563.32
 39286.852 490935.59 630427.47
 85462.110 515966.51 605371.61
 -391034.39 -233868.88 657569.35
 -418368.45 -199523.92 652041.45
 -435652.72 -133440.51 657571.55
 -430153.03 -35788.614 673563.32
 -395222.01 87618.294 690016.38
 -328910.73 221355.99 694851.97
 -237042.93 343465.86 682526.08
 -133440.51 435652.72 657571.55
 -37245.131 490955.53 630535.86
 27312.485 513682.23 612686.38
 -436193.26 -114785.83 660726.61
 -468289.11 -89093.459 642469.97
 -490955.53 -37245.132 630535.86
 -490935.59 39286.852 630427.47
 -461929.58 135197.45 639016.99
 -400862.78 240138.56 649340.05
 -309985.55 339396.80 654766.19
 -199523.92 418368.45 652041.45
 -89093.460 468289.11 642469.97
 -9925.5644 489764.44 632481.05
 -457072.36 -23329.136 656155.93
 -489764.44 -9925.5648 632481.05
 -513682.23 27312.485 612686.38
 -515966.51 85462.110 605371.61
 -490704.09 159459.45 611377.28
 -434289.57 242085.38 626727.41
 -346428.04 323198.30 644616.53
 -233868.88 391034.39 657569.35
 -114785.83 436193.26 660726.61
 -23329.137 457072.36 656155.93
 -19133.621 -507773.20 617899.90
 81174.944 -495499.93 622808.52
 211590.71 -456911.92 621659.77
 337521.20 -391277.69 610721.88
 439058.47 -307908.51 593649.73
 507788.79 -220182.22 577642.05
 543478.06 -140391.11 570019.24
 550253.37 -77257.067 575545.46