# OOMMF OVF 2.0
#
# Segment count: 1
#
# Begin: Segment
# Begin: Header
#
# Title: Oxs_MinDriver::Magnetization
# Desc: Oxs vector field output
# Desc:  MIF source file: /home/ryan/Git/joommf/tools/omfvis/cube_example.mif
# Desc:  Iteration: 4598, State id: 9726
# Desc:  Stage: 23, Stage iteration: 194
# Desc:  Stage simulation time: 0 s
# Desc:  Total simulation time: -2 s
# meshunit: m
# meshtype: rectangular
# xbase: 2.5000000000000001e-09
# ybase: 2.5000000000000001e-09
# zbase: 2.5000000000000001e-09
# xnodes: 10
# ynodes: 10
# znodes: 10
# xstepsize: 5.0000000000000001e-09
# ystepsize: 5.0000000000000001e-09
# zstepsize: 5.0000000000000001e-09
# xmin: 0
# ymin: 0
# zmin: 0
# xmax: 4.9999999999999998e-08
# ymax: 4.9999999999999998e-08
# zmax: 4.9999999999999998e-08
# valuedim: 3
# valuelabels: Magnetization_x Magnetization_y Magnetization_z
# valueunits: A/m A/m A/m
#
# End: Header
#
# Begin: Data Text
 385423.26 174855.74 678877.30
 383327.56 184312.65 677560.94
 364666.10 205076.01 681881.56
 325800.95 236437.19 691340.15
 264760.42 275491.64 702855.80
 182580.02 316652.71 711614.78
 84878.510 352646.25 713047.17
 -17761.502 376991.68 705380.61
 -110785.24 386863.56 691421.16
 -174855.75 385423.24 678877.30
 386863.58 110785.23 691421.15
 385383.47 125250.25 689776.75
 365023.47 153045.05 695223.04
 322391.53 193980.08 705999.59
 256306.83 244450.68 717321.88
 169078.71 297077.92 723296.00
 68004.717 342503.93 719768.31
 -35032.916 372937.87 706887.57
 -125250.27 385383.44 689776.76
 -184312.66 383327.54 677560.95
 376991.70 17761.490 705380.60
 372937.89 35032.898 706887.56
 347910.95 69618.256 717015.53
 298956.65 121194.12 732077.12
 225953.41 185152.88 744757.32
 133203.48 251814.85 747560.11
 30342.666 309168.15 737220.71
 -69618.286 347910.92 717015.54
 -153045.07 365023.44 695223.05
 -205076.03 364666.07 681881.58
 352646.27 -84878.524 713047.16
 342503.95 -68004.738 719768.29
 309168.17 -30342.701 737220.70
 251215.92 28457.155 758999.84
 170251.46 103257.51 774824.06
 73076.505 182371.26 775500.19
 -28457.205 251215.89 758999.85
 -121194.17 298956.61 732077.12
 -193980.12 322391.49 705999.60
 -236437.22 325800.91 691340.15
 316652.72 -182580.03 711614.77
 297077.93 -169078.73 723295.99
 251814.87 -133203.51 747560.10
 182371.29 -73076.559 775500.18
 93068.653 6544.6539 794541.00
 -6544.7247 93068.625 794541.00
 -103257.58 170251.42 774824.06
 -185152.94 225953.37 744757.32
 -244450.73 256306.78 717321.88
 -275491.68 264760.37 702855.80
 275491.65 -264760.43 702855.79
 244450.69 -256306.85 717321.86
 185152.90 -225953.45 744757.31
 103257.53 -170251.52 774824.05
 6544.6733 -93068.723 794540.99
 -93068.707 -6544.7553 794540.99
 -182371.34 73076.464 775500.18
 -251814.91 133203.43 747560.10
 -297077.97 169078.65 723295.99
 -316652.75 182579.96 711614.78
 236437.20 -325800.96 691340.14
 193980.09 -322391.55 705999.58
 121194.13 -298956.68 732077.10
 28457.167 -251215.96 758999.82
 -73076.550 -182371.35 775500.17
 -170251.51 -103257.60 774824.04
 -251215.96 -28457.247 758999.82
 -309168.21 30342.614 737220.69
 -342503.99 68004.658 719768.29
 -352646.29 84878.450 713047.15
 205076.02 -364666.10 681881.56
 153045.06 -365023.48 695223.03
 69618.266 -347910.97 717015.52
 -30342.694 -309168.21 737220.69
 -133203.51 -251814.92 747560.08
 -225953.45 -185152.96 744757.29
 -298956.68 -121194.20 732077.09
 -347910.98 -69618.335 717015.51
 -372937.92 -35032.972 706887.54
 -376991.72 -17761.561 705380.58
 184312.65 -383327.57 677560.94
 125250.26 -385383.47 689776.74
 35032.905 -372937.91 706887.55
 -68004.730 -342503.98 719768.28
 -169078.72 -297077.97 723295.97
 -256306.85 -244450.74 717321.85
 -322391.55 -193980.15 705999.57
 -365023.49 -153045.12 695223.02
 -385383.49 -125250.32 689776.72
 -386863.60 -110785.29 691421.13
 174855.75 -385423.26 678877.29
 110785.24 -386863.58 691421.14
 17761.498 -376991.71 705380.59
 -84878.518 -352646.29 713047.15
 -182580.03 -316652.75 711614.76
 -264760.43 -275491.69 702855.77
 -325800.96 -236437.24 691340.12
 -364666.11 -205076.07 681881.54
 -383327.58 -184312.70 677560.92
 -385423.27 -174855.80 678877.27
 330470.01 126012.71 717572.56
 334989.55 127953.94 715129.21
 324813.07 142255.63 717119.10
 295876.33 167797.00 724086.57
 247032.05 201679.02 733689.81
 179356.45 239406.24 741967.60
 97203.319 275233.82 744847.54
 9159.0928 303640.47 740080.12
 -71549.088 321573.02 729020.93
 -126012.72 330469.99 717572.56
 321573.04 71549.078 729020.92
 326504.70 80382.409 725901.75
 314923.92 101961.68 728304.02
 283242.50 136152.30 735687.60
 231481.98 179858.66 744356.74
 161910.59 227401.23 749715.71
 79955.291 271560.48 748239.30
 -5191.0384 305750.47 739249.42
 -80382.423 326504.68 725901.76
 -127953.95 334989.53 715129.22
 303640.48 -9159.1045 740080.11
 305750.49 5191.0211 739249.41
 289841.22 34654.156 744843.04
 253263.18 78898.450 754740.22
 197327.04 134295.73 763561.85
 125773.28 193711.42 765935.35
 45266.185 248160.23 759188.69
 -34654.183 289841.19 744843.05
 -101961.70 314923.89 728304.03
 -142255.64 324813.05 717119.11
 275233.83 -97203.333 744847.53
 271560.50 -79955.309 748239.30
 248160.25 -45266.213 759188.69
 204482.62 6600.6418 773397.24
 143534.22 71493.228 783764.41
 70628.340 140962.56 784309.37
 -6600.6854 204482.59 773397.25
 -78898.485 253263.15 754740.22
 -136152.33 283242.47 735687.60
 -167797.03 295876.30 724086.58
 239406.26 -179356.46 741967.59
 227401.25 -161910.61 749715.70
 193711.44 -125773.31 765935.35
 140962.57 -70628.381 784309.37
 74367.908 -831.95402 796535.45
 831.89668 74367.884 796535.45
 -71493.281 143534.19 783764.41
 -134295.78 197327.01 763561.85
 -179858.69 231481.94 744356.74
 -201679.06 247032.01 733689.81
 201679.03 -247032.06 733689.80
 179858.67 -231482.00 744356.73
 134295.75 -197327.07 763561.84
 71493.244 -143534.26 783764.40
 -831.94338 -74367.963 796535.44
 -74367.949 831.87891 796535.45
 -140962.62 70628.306 784309.37
 -193711.47 125773.24 765935.35
 -227401.28 161910.55 749715.70
 -239406.28 179356.41 741967.59
 167797.01 -295876.34 724086.56
 136152.31 -283242.51 735687.59
 78898.462 -253263.20 754740.21
 6600.6504 -204482.66 773397.23
 -70628.373 -140962.62 784309.36
 -143534.26 -71493.303 783764.39
 -204482.66 -6600.7151 773397.23
 -248160.28 45266.143 759188.68
 -271560.53 79955.243 748239.29
 -275233.86 97203.269 744847.53
 142255.64 -324813.08 717119.09
 101961.69 -314923.93 728304.01
 34654.164 -289841.24 744843.03
 -45266.204 -248160.28 759188.68
 -125773.31 -193711.48 765935.33
 -197327.07 -134295.80 763561.83
 -253263.21 -78898.517 754740.20
 -289841.25 -34654.222 744843.03
 -305750.52 -5191.0868 739249.40
 -303640.51 9159.0414 740080.10
 127953.95 -334989.56 715129.21
 80382.418 -326504.71 725901.74
 5191.0331 -305750.51 739249.40
 -79955.304 -271560.53 748239.29
 -161910.61 -227401.28 749715.69
 -231482.00 -179858.71 744356.72
 -283242.52 -136152.36 735687.58
 -314923.94 -101961.74 728304.00
 -326504.73 -80382.468 725901.73
 -321573.07 -71549.138 729020.91
 126012.72 -330470.01 717572.55
 71549.091 -321573.05 729020.92
 -9159.0953 -303640.50 740080.10
 -97203.325 -275233.86 744847.53
 -179356.46 -239406.29 741967.58
 -247032.06 -201679.07 733689.79
 -295876.35 -167797.05 724086.55
 -324813.10 -142255.68 717119.08
 -334989.58 -127953.99 715129.19
 -330470.03 -126012.77 717572.53
 259434.61 64152.835 754041.18
 268479.74 63741.762 750903.20
 267832.34 74184.579 750174.97
 252258.76 94925.154 753229.53
 220430.96 123521.97 759047.11
 173010.27 156693.83 765189.18
 112791.45 190458.63 768767.58
 45596.712 220703.81 767600.66
 -18622.065 244241.28 761576.93
 -64152.845 259434.60 754041.18
 244241.29 18622.053 761576.92
 252942.38 25204.659 758541.28
 250950.63 42734.284 758417.80
 233547.90 71202.124 761830.45
 200472.97 108158.24 766884.86
 153260.53 149612.44 770796.55
 95286.619 190623.01 771092.30
 32574.433 226284.07 766638.39
 -25204.673 252942.36 758541.29
 -63741.775 268479.72 750903.21
 220703.82 -45596.726 767600.65
 226284.09 -32574.448 766638.39
 220416.16 -6836.0066 769005.84
 199523.97 30866.534 774104.28
 164468.90 77717.253 779044.29
 117717.26 128883.34 780725.13
 63187.739 178365.39 777298.59
 6835.9863 220416.15 769005.85
 -42734.304 250950.61 758417.81
 -74184.595 267832.33 750174.97
 190458.65 -112791.46 768767.58
 190623.02 -95286.636 771092.29
 178365.41 -63187.764 777298.58
 152243.39 -17995.285 785173.94
 114439.95 36923.760 790910.95
 68277.899 95945.668 791285.38
 17995.257 152243.37 785173.95
 -30866.566 199523.95 774104.29
 -71202.147 233547.88 761830.46
 -94925.177 252258.74 753229.54
 156693.85 -173010.28 765189.18
 149612.46 -153260.54 770796.55
 128883.35 -117717.28 780725.13
 95945.685 -68277.934 791285.38
 54538.069 -8792.5803 798090.40
 8792.5414 54538.060 798090.40
 -36923.802 114439.93 790910.95
 -77717.288 164468.87 779044.29
 -108158.28 200472.95 766884.86
 -123521.99 220430.94 759047.11
 123521.98 -220430.97 759047.10
 108158.25 -200472.99 766884.85
 77717.264 -164468.92 779044.29
 36923.769 -114439.98 790910.95
 -8792.5690 -54538.110 798090.40
 -54538.106 8792.5240 798090.40
 -95945.714 68277.882 791285.38
 -128883.38 117717.23 780725.13
 -149612.48 153260.50 770796.55
 -156693.87 173010.24 765189.18
 94925.166 -252258.77 753229.53
 71202.134 -233547.91 761830.45
 30866.545 -199523.99 774104.28
 -17995.277 -152243.42 785173.94
 -68277.930 -95945.721 791285.37
 -114439.98 -36923.812 790910.94
 -152243.42 17995.234 785173.94
 -178365.44 63187.712 777298.58
 -190623.05 95286.586 771092.29
 -190458.67 112791.42 768767.58
 74184.592 -267832.35 750174.97
 42734.296 -250950.64 758417.80
 -6835.9957 -220416.18 769005.84
 -63187.757 -178365.43 777298.58
 -117717.28 -128883.38 780725.12
 -164468.92 -77717.301 779044.28
 -199523.99 -30866.587 774104.28
 -220416.19 6835.9568 769005.83
 -226284.11 32574.397 766638.38
 -220703.85 45596.673 767600.65
 63741.776 -268479.74 750903.20
 25204.674 -252942.39 758541.28
 -32574.438 -226284.10 766638.38
 -95286.627 -190623.04 771092.29
 -153260.54 -149612.49 770796.54
 -200472.99 -108158.29 766884.84
 -233547.92 -71202.169 761830.44
 -250950.66 -42734.334 758417.79
 -252942.41 -25204.710 758541.27
 -244241.32 -18622.105 761576.91
 64152.851 -259434.62 754041.17
 18622.068 -244241.30 761576.92
 -45596.712 -220703.83 767600.65
 -112791.46 -190458.67 768767.57
 -173010.28 -156693.87 765189.17
 -220430.98 -123522.00 759047.10
 -252258.78 -94925.198 753229.52
 -267832.37 -74184.624 750174.96
 -268479.76 -63741.810 750903.19
 -259434.64 -64152.886 754041.16
 187019.35 1624.0008 777831.04
 201040.10 3529.4750 774319.33
 210509.69 14602.063 771668.61
 209141.59 34036.765 771428.09
 194897.70 59688.500 773596.90
 167729.42 89096.857 777128.43
 129103.24 119519.86 780414.86
 82530.833 147989.19 781849.00
 34807.921 171516.81 780621.80
 -1624.0178 187019.35 777831.04
 171516.81 -34807.940 780621.80
 184097.80 -26927.329 778063.57
 191705.31 -9490.1025 776633.13
 188627.79 16776.461 777263.22
 173622.19 49686.125 779350.13
 147195.30 86307.947 781590.99
 111102.61 123252.36 782601.47
 68867.622 156975.63 781419.16
 26927.311 184097.80 778063.57
 -3529.4926 201040.09 774319.33
 147989.19 -82530.850 781849.00
 156975.64 -68867.641 781419.16
 160588.33 -43984.567 782481.15
 154412.49 -9579.8858 784898.09
 138089.72 31802.010 787349.90
 112697.30 76681.023 788301.55
 80219.978 120987.75 786718.96
 43984.544 160588.32 782481.15
 9490.0832 191705.30 776633.13
 -14602.082 210509.69 771668.61
 119519.87 -129103.25 780414.86
 123252.37 -111102.63 782601.47
 120987.75 -80219.997 786718.96
 110369.21 -39145.627 791382.50
 92055.250 9065.3005 794634.29
 67620.196 60425.277 794843.57
 39145.597 110369.20 791382.50
 9579.8641 154412.48 784898.09
 -16776.487 188627.78 777263.22
 -34036.785 209141.58 771428.09
 89096.865 -167729.43 777128.42
 86307.955 -147195.32 781590.99
 76681.033 -112697.32 788301.55
 60425.282 -67620.218 794843.56
 39347.469 -15483.196 798881.75
 15483.164 39347.458 798881.75
 -9065.3282 92055.244 794634.29
 -31802.041 138089.70 787349.90
 -49686.151 173622.18 779350.13
 -59688.525 194897.68 773596.91
 59688.511 -194897.71 773596.90
 49686.133 -173622.20 779350.13
 31802.020 -138089.73 787349.89
 9065.3079 -92055.277 794634.28
 -15483.192 -39347.496 798881.75
 -39347.491 15483.161 798881.75
 -60425.309 67620.184 794843.56
 -76681.056 112697.29 788301.55
 -86307.976 147195.28 781590.99
 -89096.885 167729.40 777128.43
 34036.776 -209141.60 771428.08
 16776.476 -188627.81 777263.21
 -9579.8786 -154412.51 784898.08
 -39145.617 -110369.23 791382.50
 -67620.216 -60425.310 794843.56
 -92055.276 -9065.3365 794634.28
 -110369.23 39145.587 791382.50
 -120987.78 80219.963 786718.96
 -123252.40 111102.59 782601.47
 -119519.89 129103.22 780414.86
 14602.079 -210509.70 771668.61
 -9490.0886 -191705.32 776633.12
 -43984.553 -160588.34 782481.15
 -80219.990 -120987.77 786718.95
 -112697.32 -76681.056 788301.55
 -138089.74 -31802.047 787349.89
 -154412.52 9579.8524 784898.08
 -160588.35 43984.526 782481.15
 -156975.67 68867.600 781419.15
 -147989.22 82530.810 781849.00
 3529.4946 -201040.11 774319.33
 -26927.311 -184097.81 778063.57
 -68867.625 -156975.65 781419.15
 -111102.62 -123252.39 782601.47
 -147195.31 -86307.977 781590.99
 -173622.21 -49686.156 779350.12
 -188627.82 -16776.501 777263.21
 -191705.34 9490.0651 776633.12
 -184097.83 26927.288 778063.56
 -171516.85 34807.894 780621.79
 1624.0228 -187019.36 777831.04
 -34807.918 -171516.83 780621.80
 -82530.834 -147989.21 781849.00
 -129103.24 -119519.89 780414.86
 -167729.43 -89096.884 777128.42
 -194897.71 -59688.532 773596.90
 -209141.62 -34036.798 771428.08
 -210509.72 -14602.102 771668.61
 -201040.13 -3529.5171 774319.32
 -187019.38 -1624.0460 777831.03
 120241.48 -58781.948 788724.71
 140486.19 -52128.842 785841.09
 161020.12 -37302.651 782739.44
 174135.93 -16088.204 780652.19
 176762.00 9285.4520 780172.40
 168009.63 36668.511 781299.04
 148325.61 63904.951 783527.71
 119659.25 88675.857 786014.16
 86565.560 108397.83 787880.90
 58781.920 120241.49 788724.71
 108397.82 -86565.586 787880.90
 125787.09 -75458.285 786437.32
 143354.98 -55275.104 785107.64
 154124.53 -28033.345 784512.44
 155591.75 3888.0983 784714.02
 147179.98 37941.495 785428.86
 129425.03 71465.248 786219.99
 104142.85 101700.14 786645.63
 75458.258 125787.10 786437.32
 52128.816 140486.20 785841.09
 88675.851 -119659.27 786014.15
 101700.13 -104142.87 786645.63
 114434.26 -77831.778 787938.46
 121491.33 -43590.282 789518.68
 121148.67 -4166.8070 790762.69
 113198.62 37442.536 791065.19
 98242.210 78051.488 790099.00
 77831.753 114434.26 787938.46
 55275.078 143354.99 785107.64
 37302.626 161020.13 782739.44
 63904.950 -148325.63 783527.71
 71465.247 -129425.06 786219.99
 78051.489 -98242.236 790099.00
 80410.954 -58416.709 793801.97
 77744.559 -13091.666 796105.77
 70205.505 34370.557 796172.00
 58416.685 80410.954 793801.97
 43590.254 121491.33 789518.68
 28033.322 154124.53 784512.44
 16088.180 174135.94 780652.19
 36668.514 -168009.65 781299.03
 37941.497 -147180.00 785428.86
 37442.540 -113198.65 791065.18
 34370.561 -70205.533 796172.00
 28932.625 -21631.732 799183.94
 21631.708 28932.624 799183.94
 13091.637 77744.556 796105.77
 4166.7825 121148.67 790762.69
 -3888.1241 155591.75 784714.02
 -9285.4750 176762.00 780172.40
 9285.4591 -176762.02 780172.40
 3888.1086 -155591.77 784714.01
 -4166.8023 -121148.70 790762.69
 -13091.659 -77744.581 796105.76
 -21631.728 -28932.651 799183.94
 -28932.649 21631.704 799183.94
 -34370.583 70205.504 796172.00
 -37442.561 113198.62 791065.18
 -37941.520 147179.98 785428.86
 -36668.534 168009.63 781299.04
 -16088.189 -174135.95 780652.19
 -28033.335 -154124.55 784512.43
 -43590.267 -121491.35 789518.68
 -58416.703 -80410.978 793801.97
 -70205.526 -34370.582 796172.00
 -77744.581 13091.636 796105.77
 -80410.977 58416.683 793801.97
 -78051.515 98242.205 790099.00
 -71465.271 129425.03 786219.99
 -63904.975 148325.60 783527.71
 -37302.632 -161020.14 782739.44
 -55275.085 -143355.00 785107.64
 -77831.763 -114434.28 787938.46
 -98242.223 -78051.509 790099.00
 -113198.64 -37442.562 791065.18
 -121148.69 4166.7823 790762.69
 -121491.35 43590.249 789518.68
 -114434.29 77831.747 787938.46
 -101700.16 104142.84 786645.63
 -88675.880 119659.24 786014.16
 -52128.817 -140486.21 785841.09
 -75458.260 -125787.10 786437.32
 -104142.85 -101700.15 786645.63
 -129425.04 -71465.267 786219.99
 -147180.00 -37941.516 785428.86
 -155591.77 -3888.1274 784714.01
 -154124.56 28033.318 784512.43
 -143355.01 55275.071 785107.64
 -125787.12 75458.247 786437.32
 -108397.86 86565.549 787880.90
 -58781.919 -120241.49 788724.71
 -86565.560 -108397.84 787880.90
 -119659.25 -88675.869 786014.16
 -148325.61 -63904.968 783527.71
 -168009.64 -36668.532 781299.03
 -176762.02 -9285.4758 780172.40
 -174135.96 16088.174 780652.19
 -161020.15 37302.618 782739.44
 -140486.22 52128.806 785841.08
 -120241.51 58781.907 788724.71
 58781.898 -120241.52 788724.71
 86565.539 -108397.86 787880.90
 119659.23 -88675.885 786014.16
 148325.59 -63904.978 783527.71
 168009.62 -36668.537 781299.04
 176762.00 -9285.4737 780172.40
 174135.93 16088.181 780652.19
 161020.12 37302.630 782739.44
 140486.19 52128.822 785841.09
 120241.48 58781.926 788724.71
 52128.797 -140486.23 785841.08
 75458.241 -125787.12 786437.32
 104142.83 -101700.17 786645.63
 129425.02 -71465.278 786219.99
 147179.97 -37941.519 785428.86
 155591.74 -3888.1271 784714.02
 154124.53 28033.325 784512.44
 143354.98 55275.081 785107.65
 125787.09 75458.262 786437.32
 108397.82 86565.565 787880.90
 37302.613 -161020.16 782739.44
 55275.064 -143355.02 785107.64
 77831.742 -114434.29 787938.46
 98242.201 -78051.516 790099.00
 113198.61 -37442.568 791065.19
 121148.67 4166.7843 790762.69
 121491.32 43590.253 789518.68
 114434.26 77831.756 787938.46
 101700.13 104142.85 786645.63
 88675.851 119659.25 786014.16
 16088.171 -174135.96 780652.19
 28033.314 -154124.56 784512.43
 43590.246 -121491.36 789518.68
 58416.679 -80410.985 793801.97
 70205.501 -34370.583 796172.00
 77744.552 13091.635 796105.77
 80410.951 58416.687 793801.97
 78051.484 98242.210 790099.00
 71465.245 129425.03 786219.99
 63904.947 148325.61 783527.71
 -9285.4767 -176762.03 780172.40
 -3888.1272 -155591.78 784714.01
 4166.7815 -121148.70 790762.69
 13091.635 -77744.583 796105.76
 21631.705 -28932.653 799183.94
 28932.623 21631.706 799183.94
 34370.555 70205.505 796172.00
 37442.538 113198.63 791065.19
 37941.491 147179.98 785428.86
 36668.510 168009.63 781299.04
 -36668.530 -168009.65 781299.03
 -37941.514 -147180.00 785428.86
 -37442.560 -113198.64 791065.18
 -34370.580 -70205.531 796172.00
 -28932.649 -21631.732 799183.94
 -21631.731 28932.625 799183.94
 -13091.660 77744.558 796105.77
 -4166.8098 121148.67 790762.69
 3888.1037 155591.75 784714.02
 9285.4516 176762.01 780172.40
 -63904.963 -148325.62 783527.71
 -71465.261 -129425.05 786219.99
 -78051.504 -98242.229 790099.00
 -80410.972 -58416.706 793801.97
 -77744.577 -13091.661 796105.77
 -70205.525 34370.558 796172.00
 -58416.709 80410.955 793801.97
 -43590.273 121491.33 789518.68
 -28033.345 154124.53 784512.43
 -16088.199 174135.93 780652.19
 -88675.861 -119659.26 786014.16
 -101700.14 -104142.86 786645.63
 -114434.27 -77831.769 787938.46
 -121491.34 -43590.273 789518.68
 -121148.69 -4166.8048 790762.69
 -113198.64 37442.539 791065.18
 -98242.227 78051.488 790099.00
 -77831.773 114434.26 787938.46
 -55275.097 143354.98 785107.64
 -37302.645 161020.13 782739.44
 -108397.83 -86565.568 787880.90
 -125787.10 -75458.269 786437.32
 -143354.99 -55275.092 785107.64
 -154124.54 -28033.338 784512.43
 -155591.76 3888.1046 784714.02
 -147179.99 37941.496 785428.86
 -129425.05 71465.248 786219.99
 -104142.86 101700.13 786645.63
 -75458.276 125787.09 786437.32
 -52128.835 140486.19 785841.09
 -120241.48 -58781.929 788724.71
 -140486.19 -52128.826 785841.09
 -161020.13 -37302.639 782739.44
 -174135.94 -16088.195 780652.19
 -176762.01 9285.4563 780172.40
 -168009.64 36668.513 781299.03
 -148325.62 63904.950 783527.71
 -119659.26 88675.854 786014.16
 -86565.578 108397.83 787880.90
 -58781.939 120241.48 788724.71
 -1624.0600 -187019.39 777831.03
 34807.881 -171516.85 780621.79
 82530.795 -147989.22 781849.00
 129103.20 -119519.90 780414.86
 167729.39 -89096.887 777128.43
 194897.67 -59688.527 773596.91
 209141.57 -34036.784 771428.09
 210509.67 -14602.081 771668.62
 201040.08 -3529.4900 774319.33
 187019.34 -1624.0141 777831.04
 -3529.5289 -201040.13 774319.32
 26927.275 -184097.84 778063.56
 68867.588 -156975.67 781419.15
 111102.58 -123252.40 782601.47
 147195.27 -86307.982 781591.00
 173622.16 -49686.151 779350.13
 188627.77 -16776.489 777263.22
 191705.29 9490.0843 776633.13
 184097.78 26927.313 778063.57
 171516.80 34807.923 780621.80
 -14602.111 -210509.73 771668.60
 9490.0546 -191705.34 776633.12
 43984.516 -160588.36 782481.14
 80219.950 -120987.78 786718.96
 112697.28 -76681.058 788301.55
 138089.69 -31802.045 787349.90
 154412.47 9579.8635 784898.09
 160588.31 43984.542 782481.15
 156975.62 68867.621 781419.16
 147989.18 82530.833 781849.00
 -34036.805 -209141.62 771428.08
 -16776.507 -188627.82 777263.21
 9579.8442 -154412.52 784898.08
 39145.581 -110369.24 791382.50
 67620.176 -60425.315 794843.57
 92055.237 -9065.3317 794634.29
 110369.19 39145.594 791382.50
 120987.74 80219.976 786718.96
 123252.36 111102.61 782601.47
 119519.86 129103.23 780414.86
 -59688.535 -194897.72 773596.90
 -49686.160 -173622.21 779350.12
 -31802.050 -138089.74 787349.89
 -9065.3385 -92055.281 794634.28
 15483.157 -39347.495 798881.75
 39347.456 15483.162 798881.75
 60425.275 67620.192 794843.57
 76681.019 112697.30 788301.55
 86307.946 147195.30 781591.00
 89096.854 167729.42 777128.43
 -89096.883 -167729.43 777128.42
 -86307.976 -147195.32 781590.99
 -76681.054 -112697.32 788301.55
 -60425.310 -67620.219 794843.56
 -39347.493 -15483.195 798881.75
 -15483.194 39347.462 798881.75
 9065.2996 92055.248 794634.29
 31802.015 138089.71 787349.90
 49686.123 173622.19 779350.13
 59688.502 194897.69 773596.91
 -119519.88 -129103.25 780414.86
 -123252.38 -111102.62 782601.47
 -120987.77 -80219.994 786718.95
 -110369.22 -39145.622 791382.50
 -92055.270 9065.3028 794634.29
 -67620.215 60425.281 794843.56
 -39145.617 110369.20 791382.50
 -9579.8853 154412.49 784898.09
 16776.470 188627.79 777263.22
 34036.767 209141.59 771428.09
 -147989.20 -82530.839 781849.00
 -156975.64 -68867.631 781419.16
 -160588.33 -43984.559 782481.15
 -154412.50 -9579.8820 784898.09
 -138089.73 31802.017 787349.90
 -112697.31 76681.028 788301.55
 -80219.991 120987.75 786718.96
 -43984.556 160588.32 782481.15
 -9490.0963 191705.31 776633.13
 14602.071 210509.69 771668.61
 -171516.81 -34807.926 780621.80
 -184097.80 -26927.318 778063.57
 -191705.31 -9490.0941 776633.13
 -188627.79 16776.470 777263.21
 -173622.19 49686.129 779350.13
 -147195.30 86307.953 781590.99
 -111102.62 123252.37 782601.47
 -68867.630 156975.64 781419.16
 -26927.320 184097.80 778063.57
 3529.4845 201040.10 774319.33
 -187019.35 1624.0142 777831.04
 -201040.09 3529.4866 774319.33
 -210509.69 14602.073 771668.61
 -209141.59 34036.771 771428.09
 -194897.70 59688.506 773596.90
 -167729.42 89096.861 777128.43
 -129103.24 119519.87 780414.86
 -82530.839 147989.19 781849.00
 -34807.927 171516.81 780621.80
 1624.0111 187019.35 777831.04
 -64152.904 -259434.65 754041.16
 -18622.125 -244241.33 761576.91
 45596.653 -220703.85 767600.65
 112791.39 -190458.68 768767.58
 173010.22 -156693.87 765189.19
 220430.92 -123522.00 759047.12
 252258.72 -94925.179 753229.54
 267832.31 -74184.596 750174.98
 268479.71 -63741.774 750903.21
 259434.59 -64152.844 754041.18
 -63741.827 -268479.77 750903.18
 -25204.727 -252942.41 758541.27
 32574.377 -226284.12 766638.38
 95286.566 -190623.05 771092.29
 153260.48 -149612.49 770796.56
 200472.93 -108158.28 766884.86
 233547.86 -71202.151 761830.46
 250950.60 -42734.306 758417.81
 252942.35 -25204.676 758541.29
 244241.27 -18622.065 761576.93
 -74184.637 -267832.37 750174.95
 -42734.349 -250950.66 758417.79
 6835.9405 -220416.20 769005.83
 63187.696 -178365.44 777298.58
 117717.21 -128883.38 780725.13
 164468.86 -77717.293 779044.30
 199523.93 -30866.570 774104.29
 220416.13 6835.9815 769005.85
 226284.06 32574.430 766638.40
 220703.80 45596.708 767600.66
 -94925.207 -252258.79 753229.52
 -71202.179 -233547.93 761830.44
 -30866.598 -199524.00 774104.27
 17995.222 -152243.42 785173.94
 68277.870 -95945.720 791285.38
 114439.92 -36923.807 790910.95
 152243.36 17995.250 785173.95
 178365.38 63187.734 777298.59
 190623.00 95286.613 771092.30
 190458.63 112791.45 768767.59
 -123522.01 -220430.98 759047.10
 -108158.29 -200473.00 766884.84
 -77717.305 -164468.93 779044.28
 -36923.819 -114439.99 790910.94
 8792.5206 -54538.111 798090.40
 54538.053 8792.5324 798090.40
 95945.664 68277.894 791285.38
 128883.33 117717.25 780725.13
 149612.44 153260.52 770796.56
 156693.83 173010.26 765189.19
 -156693.87 -173010.28 765189.17
 -149612.48 -153260.54 770796.54
 -128883.38 -117717.28 780725.12
 -95945.717 -68277.934 791285.37
 -54538.110 -8792.5769 798090.40
 -8792.5781 54538.066 798090.40
 36923.762 114439.94 790910.95
 77717.252 164468.89 779044.29
 108158.25 200472.97 766884.86
 123521.97 220430.96 759047.11
 -190458.66 -112791.46 768767.58
 -190623.03 -95286.631 771092.29
 -178365.42 -63187.761 777298.58
 -152243.41 -17995.283 785173.94
 -114439.98 36923.765 790910.95
 -68277.925 95945.676 791285.38
 -17995.280 152243.38 785173.94
 30866.543 199523.96 774104.29
 71202.128 233547.89 761830.45
 94925.160 252258.76 753229.54
 -220703.82 -45596.717 767600.65
 -226284.09 -32574.442 766638.39
 -220416.17 -6836.0013 769005.84
 -199523.97 30866.540 774104.28
 -164468.91 77717.257 779044.29
 -117717.27 128883.34 780725.13
 -63187.751 178365.40 777298.59
 -6835.9965 220416.16 769005.84
 42734.294 250950.62 758417.80
 74184.587 267832.34 750174.97
 -244241.29 18622.062 761576.93
 -252942.37 25204.667 758541.28
 -250950.63 42734.291 758417.80
 -233547.90 71202.129 761830.45
 -200472.97 108158.25 766884.85
 -153260.53 149612.45 770796.55
 -95286.621 190623.02 771092.29
 -32574.435 226284.08 766638.39
 25204.672 252942.38 758541.28
 63741.773 268479.73 750903.20
 -259434.61 64152.843 754041.18
 -268479.73 63741.770 750903.20
 -267832.33 74184.585 750174.97
 -252258.76 94925.160 753229.54
 -220430.96 123521.97 759047.11
 -173010.27 156693.84 765189.18
 -112791.45 190458.64 768767.58
 -45596.710 220703.82 767600.65
 18622.067 244241.29 761576.92
 64152.847 259434.61 754041.18
 -126012.79 -330470.03 717572.53
 -71549.162 -321573.07 729020.90
 9159.0138 -303640.51 740080.10
 97203.241 -275233.87 744847.53
 179356.38 -239406.29 741967.60
 247031.98 -201679.06 733689.82
 295876.28 -167797.03 724086.59
 324813.03 -142255.65 717119.12
 334989.52 -127953.95 715129.23
 330469.97 -126012.72 717572.57
 -127954.01 -334989.58 715129.19
 -80382.492 -326504.73 725901.73
 -5191.1114 -305750.53 739249.40
 79955.217 -271560.54 748239.29
 161910.52 -227401.29 749715.71
 231481.92 -179858.70 744356.75
 283242.44 -136152.34 735687.61
 314923.87 -101961.71 728304.03
 326504.67 -80382.425 725901.76
 321573.01 -71549.092 729020.94
 -142255.70 -324813.10 717119.08
 -101961.76 -314923.94 728304.00
 -34654.245 -289841.25 744843.03
 45266.120 -248160.29 759188.68
 125773.22 -193711.48 765935.35
 197326.99 -134295.79 763561.85
 253263.13 -78898.494 754740.23
 289841.17 -34654.188 744843.06
 305750.46 -5191.0460 739249.42
 303640.45 9159.0874 740080.12
 -167797.06 -295876.35 724086.55
 -136152.38 -283242.52 735687.57
 -78898.531 -253263.21 754740.20
 -6600.7329 -204482.66 773397.23
 70628.290 -140962.62 784309.37
 143534.18 -71493.291 783764.41
 204482.58 -6600.6925 773397.25
 248160.22 45266.175 759188.70
 271560.47 79955.284 748239.31
 275233.81 97203.310 744847.55
 -201679.07 -247032.06 733689.79
 -179858.72 -231482.01 744356.72
 -134295.81 -197327.08 763561.83
 -71493.310 -143534.27 783764.39
 831.86854 -74367.958 796535.44
 74367.877 831.88975 796535.45
 140962.55 70628.328 784309.38
 193711.41 125773.27 765935.36
 227401.23 161910.58 749715.71
 239406.24 179356.44 741967.60
 -239406.29 -179356.46 741967.58
 -227401.28 -161910.61 749715.69
 -193711.48 -125773.31 765935.33
 -140962.62 -70628.380 784309.36
 -74367.960 -831.94922 796535.44
 -831.95381 74367.897 796535.45
 71493.230 143534.21 783764.41
 134295.74 197327.03 763561.85
 179858.66 231481.97 744356.74
 201679.02 247032.04 733689.81
 -275233.85 -97203.328 744847.53
 -271560.52 -79955.307 748239.29
 -248160.27 -45266.210 759188.68
 -204482.65 6600.6456 773397.23
 -143534.25 71493.235 783764.40
 -70628.372 140962.57 784309.37
 6600.6516 204482.61 773397.24
 78898.459 253263.17 754740.22
 136152.31 283242.49 735687.60
 167797.01 295876.32 724086.57
 -303640.49 -9159.0990 740080.11
 -305750.50 5191.0266 739249.41
 -289841.22 34654.160 744843.04
 -253263.19 78898.454 754740.22
 -197327.06 134295.74 763561.84
 -125773.30 193711.43 765935.35
 -45266.197 248160.24 759188.69
 34654.169 289841.21 744843.05
 101961.69 314923.91 728304.02
 142255.64 324813.07 717119.10
 -321573.04 71549.084 729020.93
 -326504.70 80382.414 725901.75
 -314923.91 101961.69 728304.02
 -283242.50 136152.31 735687.59
 -231481.98 179858.66 744356.74
 -161910.59 227401.24 749715.70
 -79955.291 271560.50 748239.30
 5191.0400 305750.49 739249.41
 80382.423 326504.70 725901.75
 127953.95 334989.55 715129.21
 -330470.00 126012.72 717572.56
 -334989.54 127953.94 715129.22
 -324813.07 142255.63 717119.10
 -295876.32 167797.01 724086.57
 -247032.04 201679.03 733689.81
 -179356.44 239406.25 741967.60
 -97203.312 275233.83 744847.54
 -9159.0862 303640.48 740080.11
 71549.095 321573.04 729020.92
 126012.73 330470.00 717572.55
 -174855.82 -385423.28 678877.26
 -110785.32 -386863.60 691421.12
 -17761.592 -376991.73 705380.58
 84878.417 -352646.30 713047.15
 182579.93 -316652.76 711614.78
 264760.34 -275491.69 702855.81
 325800.89 -236437.23 691340.16
 364666.04 -205076.04 681881.58