# ODT 1.0
# Table Start
# Title: mmArchive Data Table, Thu Aug 04 12:00:08 BST 2016
# Columns: {Oxs_RungeKuttaEvolve:evolve:Total energy} {Oxs_RungeKuttaEvolve:evolve:Energy calc count} {Oxs_RungeKuttaEvolve:evolve:Max dm/dt} Oxs_RungeKuttaEvolve:evolve:dE/dt {Oxs_RungeKuttaEvolve:evolve:Delta E} Oxs_UniformExchange::Energy {Oxs_UniformExchange::Max Spin Ang} {Oxs_UniformExchange::Stage Max Spin Ang} {Oxs_UniformExchange::Run Max Spin Ang} Oxs_Demag::Energy    Oxs_FixedZeeman::Energy Oxs_TimeDriver::Iteration {Oxs_TimeDriver::Stage iteration} Oxs_TimeDriver::Stage Oxs_TimeDriver::mx   Oxs_TimeDriver::my   Oxs_TimeDriver::mz   {Oxs_TimeDriver::Last time step} {Oxs_TimeDriver::Simulation time}
# Units:                       J                                            {}                                        deg/ns                                 J/s                                  J                                J                              deg                                    deg                                      deg                           J                       J                       {}                            {}                          {}                   {}                   {}                   {}                          s                                 s                
                       1.6755160819145565e-17                          1                                           3268.0002839621743                  -2.9189476409631361e-08                 0                                0                               0                                      0                                        0                              1.6755160819145565e-17   0                        0                             0                           0                     0                    0                    1                          0                                0                         
                       1.6755075968035514e-17                          7                                           3267.8847366066152                  -2.9188092397114817e-08                -8.4851110049125182e-23              7.1908318331668944e-26             0.0040556622782035624                    0.0040556622782035624                      0.0040556622782035624            1.6755075904120425e-17  -7.9932295286697678e-27      1                             1                           0                     6.360809953779637e-08 -6.360809936327907e-07  0.99999999783104021        2.9069764915938296e-15              2.9069764915938296e-15       
                       1.675473660382281e-17                          13                                          3267.4124527239674                  -2.9182557593160198e-08                -3.3936421270093521e-22              1.79731565262415e-24             0.020274879142734351                    0.020274879142734351                      0.020274879142734351            1.6754734846473307e-17  -3.9966148675683613e-26      2                             2                           0                     3.1804050590403222e-07 -3.1804048406704878e-06  0.99999994578115881        1.1627905966375318e-14              1.4534882457969147e-14       
                       1.6753379790197216e-17                          19                                          3265.3622709591014                  -2.9160438970651184e-08                -1.356813625594769e-21              3.1676427584876689e-23             0.085093303984364002                    0.085093303984364002                      0.085093303984364002            1.6753348281627531e-17  -1.678579004477871e-25      3                             3                           0                     1.335770729664614e-06 -1.3357691050929533e-05  0.9999990439442682         4.6511623865501273e-14              6.104650632347042e-14       
                       1.6747962797922258e-17                          25                                          3254.6178821968097                  -2.9072341337403478e-08                -5.4169922749619133e-21              5.1697388275285281e-22             0.34320871000650954                    0.34320871000650954                      0.34320871000650954            1.6747446503469583e-17  -6.7943007779263151e-25      4                             4                           0                     5.4067327683003169e-06 -5.4066232655158905e-05  0.9999843609739405         1.8604649546200509e-13              2.4709300178547554e-13       
                       1.6726456203207714e-17                          31                                          3204.9143499987513                  -2.8730128712320084e-08                -2.1506594714545208e-20              8.1601718680877328e-21             1.3436521756624302                     1.3436521756624302                       1.3436521756624302             1.6718298757448451e-17  -2.726108825916902e-24      5                             5                           0                     2.1693684752556073e-05 -0.00021686168348910491  0.99974994128632189        7.4418598184802037e-13              9.912789836334959e-13       
                       1.6667109101992523e-17                          37                                          3008.1203071612531                  -2.7986131344807249e-08                -5.9347101215197297e-20              7.3234334707979755e-20             3.8274567819686371                     3.8274567819686371                       3.8274567819686371             1.6593883272603803e-17  -8.5053192621117144e-24      6                             6                           0                     6.7683180156986926e-05 -0.00067422689333919645  0.99762250002838371        2.0957265899428025e-12              3.0870055735762986e-12       
                       1.6604838210012214e-17                          43                                          2580.0177990105312                  -2.7736575720669928e-08                -6.2270891980297057e-20              1.9922161175861322e-19             5.442410332776995                      5.442410332776995                        5.442410332776995              1.6405631351852897e-17  -1.4753599297601389e-23      7                             7                           0                     0.00011740541283051746 -0.001159214450146032  0.99305856941423687        2.2394016306083529e-12              5.3264072041846515e-12       
                       1.6541235145278904e-17                          49                                          2420.4306590862029                  -2.8059985215087622e-08                -6.3603064733315299e-20              3.7630747576249003e-19             6.5230479255425067                     6.5230479255425067                       6.5230479255425067             1.6164948959606114e-17  -2.1290089699772552e-23      8                             8                           0                     0.00016942115072943444 -0.0016473505063566386  0.98603775220649637        2.2838868430955554e-12              7.6102940472802077e-12       
                       1.6483464412572576e-17                          61                                          2266.7196365582772                  -2.8768894587553847e-08                -5.7770732706324166e-20              5.7345032195052982e-19             7.5565518044099935                     7.5565518044099935                       7.5565518044099935             1.5910041438682267e-17  -2.7348060218805483e-23      9                             9                           0                     0.00021762894838988665 -0.0020748744785918367  0.97775184843642859        2.0354359920227499e-12              9.6457300393029576e-12       
                       1.6428193734997429e-17                          67                                          2235.6779734618863                  -2.9717200453763985e-08                -5.5270677575148916e-20              7.9109625867969554e-19             8.425644218641601                      8.425644218641601                        8.425644218641601              1.5637130743069267e-17  -3.3266751531601261e-23      10                            10                          0                     0.00026472839734320531 -0.0024642560429685291  0.96828267803679569        1.8914706545394042e-12              1.1537200693842362e-11       
                       1.6374811012041699e-17                          73                                          2190.5059367372328                  -3.0787075778038782e-08                -5.3382722955729741e-20              1.0261258909117491e-18             9.3845915572466989                     9.3845915572466989                       9.3845915572466989             1.5348724251341811e-17  -3.9130211859498246e-23      11                            11                          0                     0.00031138833208361523 -0.0028195439906088344  0.95784447102680748        1.7653233366953171e-12              1.3302524030537679e-11       
                       1.6322839399999236e-17                          79                                          2205.1063856163587                  -3.1867255782396533e-08                -5.1971612042462853e-20              1.2771864776268392e-18             10.373258818766383                     10.373258818766383                       10.373258818766383             1.5045697943697328e-17  -4.5021324930548914e-23      12                            12                          0                     0.00035826832036217561 -0.0031452438763250271  0.94657020053442154        1.6591392515908221e-12              1.4961663282128501e-11       
                       1.6270747074505008e-17                          85                                          2277.6594122081724                  -3.2881966693387628e-08                -5.2092325494228926e-20              1.5504191713460831e-18             12.601746455840171                     12.601746455840171                       12.601746455840171             1.4720379063932764e-17  -5.116077383670218e-23      13                            13                          0                     0.000407124502425876 -0.0034524684109087361  0.9342438041672616         1.6087326625433148e-12              1.6570395944671814e-11       
                       1.6217899508292691e-17                          91                                          2310.9711101663156                  -3.3744233400577927e-08                -5.2847566212315077e-20              1.8497630505720838e-18             14.730817393526497                     14.730817393526497                       14.730817393526497             1.4368194150105054e-17  -5.7692384446725095e-23      14                            14                          0                     0.00045910140817271428 -0.0037460757133390638  0.92073231040262182        1.5856775115339394e-12              1.8156073456205753e-11       
                       1.6163883192880653e-17                          97                                          2286.5308816340303                  -3.4373421205812831e-08                -5.4016315412040398e-20              2.1790417458951613e-18             16.714291430805456                     16.714291430805456                       16.714291430805456             1.3984906203115601e-17  -6.475613011062533e-23      15                            15                          0                     0.0005153129101304058 -0.0040294538853996214  0.90588846174547044        1.5849436445743057e-12              1.9741017100780057e-11       
                       1.6108954198528834e-17                          103                                         2205.615768504525                   -3.4694671290726607e-08                -5.4928994351815902e-20              2.5382724566106805e-18             18.558558462207372                     18.558558462207372                       18.558558462207372             1.3570754161910986e-17  -7.2419992831624343e-23      16                            16                          0                     0.00057629999189162629 -0.0043025251412638207  0.88971162622651312        1.5892926780165715e-12              2.1330309778796627e-11       
                       1.6053635331068774e-17                          109                                         2109.8840648738842                  -3.4646155116396175e-08                -5.5318867460058741e-20              2.9251259783671895e-18             20.297491021964085                     20.297491021964085                       20.297491021964085             1.3128590065182174e-17  -8.07124805877975e-23      17                            17                          0                     0.00064228951273781487 -0.004564349969209772  0.87228391644489101        1.5940871742111792e-12              2.2924396953007807e-11       
                       1.5998761783796668e-17                          115                                         2039.8382525023464                  -3.4193202742849495e-08                -5.4873547272107932e-20              3.3340496137243458e-18             21.968441891264501                     21.968441891264501                       21.968441891264501             1.2664801766825817e-17  -8.9596753493179389e-23      18                            18                          0                     0.00071298831017127724 -0.0048130436620067042  0.85381642667881519        1.5927002500645768e-12              2.4517097203072382e-11       
                       1.5944973140921957e-17                          121                                         1998.019638947153                   -3.3339489824674128e-08                -5.3788642874711498e-20              3.7596665570465113e-18             23.585743004866991                     23.585743004866991                       23.585743004866991             1.2185405618595376e-17  -9.9034719932327393e-23      19                            19                          0                     0.00078809326074758316 -0.005047987769512258  0.83450633900994331        1.5914784851759496e-12              2.6108575688248332e-11       
                       1.5892835950001626e-17                          127                                         1947.9304381180364                  -3.2123901501856548e-08                -5.2137190920336055e-20              4.1960634822164055e-18             25.140577999245892                     25.140577999245892                       25.140577999245892             1.1696881432667348e-17  -1.0896488212908105e-22      20                            20                          0                     0.00086711498071347136 -0.0052689409740310066  0.81458072418297411        1.5915463721113861e-12              2.7700122060359716e-11       
                       1.5839164539282873e-17                          133                                         1951.1697866605793                  -3.0476707134936092e-08                -5.367141071874915e-20              4.6701974054159462e-18             26.738272269669423                     26.738272269669423                       26.738272269669423             1.1169087227692977e-17  -1.2009382605005129e-22      21                            21                          0                     0.00095567630253416257 -0.005491019900311118  0.79276497296196446        1.7133339752262535e-12              2.9413456035585972e-11       
                       1.5788524600453021e-17                          139                                         1942.9768290336012                  -2.8538911656859042e-08                -5.0639938829849833e-20              5.1408974391193151e-18             28.252531353447807                     28.252531353447807                       28.252531353447807             1.0647758708513097e-17  -1.3154717939069214e-22      22                            22                          0                     0.0010468191924912389 -0.0056973420969448005  0.77092789748970181        1.7149737884846857e-12              3.1128429824070657e-11       
                       1.5742549977029629e-17                          145                                         1876.5187559719357                  -2.6431637698752641e-08                -4.5974623423392761e-20              5.5874732803812738e-18             29.641782434816417                     29.641782434816417                       29.641782434816417             1.0155219566630611e-17  -1.4286998225484717e-22      23                            23                          0                     0.0011369231947655231 -0.0058842103695409447  0.75003298172221233        1.6718886489069556e-12              3.2800318472977611e-11       
                       1.5701196712983487e-17                          151                                         1751.5161518739178                  -2.4250923236106118e-08                -4.1353264046141633e-20              6.0029282392882299e-18             30.896257039863706                     30.896257039863706                       30.896257039863706             9.6984224212834173e-18  -1.539475881606918e-22      24                            24                          0                     0.0012250759816424968 -0.0060547827702199485  0.73039291666074968        1.6315717002618829e-12              3.4431890173239495e-11       
                       1.5663917400931176e-17                          157                                         1591.4602420272822                  -2.2088107705683593e-08                -3.7279312052313358e-20              6.3843544777952838e-18             32.008738279383394                     32.008738279383394                       32.008738279383394             9.2797277391212337e-18  -1.6481598534237185e-22      25                            25                          0                     0.0013115639383900026 -0.0062140411730603456  0.71209368758269553        1.6093566335579078e-12              3.6041246806797403e-11       
                       1.5630236851463686e-17                          163                                         1648.286644690349                   -2.0042009233552085e-08                -3.3680549467492431e-20              6.7273420380392811e-18             33.252030228499329                     33.252030228499329                       33.252030228499329             8.9030703361334723e-18  -1.7552270906787172e-22      26                            26                          0                     0.0013967653386516171 -0.0063664852370841456  0.69526695792607307        1.6000084623968299e-12              3.7641255269194233e-11       
                       1.559973582656448e-17                          169                                         1698.4701335602547                  -1.8210948660667752e-08                -3.0501024899205947e-20              7.0263301388951403e-18             35.043529446904408                     35.043529446904408                       35.043529446904408             8.5735918071661623e-18  -1.86119496825634e-22      27                            27                          0                     0.0014810918962787837 -0.0065161399904509389  0.68009708535087487        1.5966252182475111e-12              3.9237880487441743e-11       
                       1.5571928576815459e-17                          175                                         1740.1867430338957                  -1.6678859065198589e-08                -2.7807249749019161e-20              7.2764953108068386e-18             36.522876150046812                     36.522876150046812                       36.522876150046812             8.2956299654181051e-18  -1.9669940948614727e-22      28                            28                          0                     0.0015652841661488823 -0.0066669629668887516  0.66675479806883942        1.5966974113210626e-12              4.0834577898762808e-11       
                       1.5546273736131456e-17                          181                                         1790.16092364825                    -1.5506496246861641e-08                -2.5654840684003451e-20              7.4745148057899503e-18             37.58154700332738                      37.58154700332738                        37.58154700332738              8.0719663321421075e-18  -2.0740180060362296e-22      29                            29                          0                     0.0016504510886113113 -0.006822642375252143  0.65538236897556734        1.5974876107520564e-12              4.2432065509514867e-11       
                       1.5522190819495515e-17                          187                                         1846.6341580379544                  -1.4720181527496392e-08                -2.4082916635941406e-20              7.6193764650412003e-18             38.184584215872036                     38.184584215872036                       38.184584215872036             7.9030327733672611e-18  -2.1841891294492261e-22      30                            30                          0                     0.0017381224829971093 -0.0069863914600419444  0.6460705108622764         1.5970397435205796e-12              4.402910525303545e-11       
                       1.5499082973742144e-17                          193                                         1899.7768002743001                  -1.4304811319179106e-08                -2.310784575337099e-20              7.7128418455051514e-18             38.278003339392413                     38.278003339392413                       38.278003339392413             7.7864711340138442e-18  -2.3000577685203005e-22      31                            31                          0                     0.001830327816284611 -0.0071608776286104367  0.63883789987356976        1.5956459014842896e-12              4.5624751154519738e-11       
                       1.547636798914792e-17                          199                                         1946.6467665637333                  -1.4208588336004118e-08                -2.2714984594223326e-20              7.7591286829601428e-18             37.907843103225424                     38.278003339392413                       38.278003339392413             7.717481796860749e-18  -2.4249067297246754e-22      32                            32                          0                     0.0019296794628624199 -0.0073483097184771952  0.63363223069301133        1.5961092818753394e-12              4.722086043639508e-11       
                       1.5453584723874289e-17                          205                                         1987.8328952250865                  -1.4356799945212498e-08                -2.2783265273629051e-20              7.7639849963908112e-18             37.468078303284329                     38.278003339392413                       38.278003339392413             7.6898559636947747e-18  -2.5623621129672388e-22      33                            33                          0                     0.0020390629813506361 -0.0075498919202708374  0.63036298426542281        1.5972252437053241e-12              4.8818085680100402e-11       
                       1.543043558497313e-17                          211                                         2029.6425347684083                  -1.4665490263368398e-08                -2.3149138901162299e-20              7.734165661419115e-18             36.789654753122875                     38.278003339392413                       38.278003339392413             7.696541531182719e-18  -2.7160762870456423e-22      34                            34                          0                     0.0021613848344899621 -0.0077655338539417617  0.62890631484971815        1.5965248954145608e-12              5.0414610575514965e-11       
                       1.5406749154384818e-17                          217                                         2065.3765566818329                  -1.5054379488518883e-08                -2.3686430588314042e-20              7.6767547749026293e-18             35.878724631829378                     38.278003339392413                       38.278003339392413             7.7302833531544631e-18  -2.889736722763855e-22      35                            35                          0                     0.0022995794183102063 -0.0079942046030594266  0.62910750254002701        1.5945385119198287e-12              5.2009149087434797e-11       
                       1.5382457275804367e-17                          223                                         2100.1743669257571                  -1.5455664207039788e-08                -2.4291878580448447e-20              7.5983628722306573e-18             35.420764978534905                     38.278003339392413                       38.278003339392413             7.7844030992991345e-18  -3.0869572542793483e-22      36                            36                          0                     0.0024565225306597445 -0.008234156812571853  0.63079935132489084        1.5924093316654966e-12              5.3601558419100294e-11       
                       1.5357603980444422e-17                          229                                         2154.2533758642267                  -1.5818120320125496e-08                -2.4853295359943386e-20              7.5046683850858852e-18             35.299669079073041                     38.278003339392413                       38.278003339392413             7.8532666801573324e-18  -3.3108479879491312e-22      37                            37                          0                     0.0026346891155397752 -0.008482781363524516  0.63381472919136306        1.5890711679549157e-12              5.5190629587055212e-11       
                       1.5332285356895476e-17                          235                                         2203.5935494255186                  -1.6109731711966771e-08                -2.5318623548942502e-20              7.3999737746268978e-18             35.078407319083489                     38.278003339392413                       38.278003339392413             7.9326679930004445e-18  -3.5641073186375454e-22      38                            38                          0                     0.0028362264873558283 -0.0087371119569125012  0.63799810093517029        1.585479861302261e-12              5.6776109448357476e-11       
                       1.5306616210076913e-17                          241                                         2235.7079994229321                  -1.6317088281752584e-08                -2.5669146818565939e-20              7.2870134207977937e-18             34.762069074157203                     38.278003339392413                       38.278003339392413             8.0199876903097671e-18  -3.8490103064721306e-22      39                            39                          0                     0.0030629450814334677 -0.0089940605323286446  0.64321527917421739        1.5826601054098645e-12              5.8358769553767344e-11       
                       1.5280732775199682e-17                          247                                         2249.6597817449733                  -1.6442137520646704e-08                -2.5883434877233949e-20              7.1671364414745721e-18             34.770674763729566                     38.278003339392413                       38.278003339392413             8.1140130382217992e-18  -4.1670449668904508e-22      40                            40                          0                     0.0033160290228340847 -0.0092502929280234535  0.64935024028007071        1.5797505731562568e-12              5.9938520126923602e-11       
                       1.5254770957107587e-17                          253                                         2244.2781869474038                  -1.6497804701641572e-08                -2.5961818092094129e-20              7.0405696251150679e-18             34.78382954700691                      38.278003339392413                       38.278003339392413             8.2146532117497309e-18  -4.5187975721159477e-22      41                            41                          0                     0.0035959448521695218 -0.0095023951591327281  0.65630106214502781        1.5759753984864769e-12              6.1514495525410074e-11       
                       1.5228870127775579e-17                          259                                         2224.2345986758942                  -1.6502390424982823e-08                -2.5900829332008906e-20              6.9069267371508127e-18             34.575509724927642                     38.278003339392413                       38.278003339392413             8.322433749777239e-18  -4.9035915247490768e-22      42                            42                          0                     0.003902154150336669 -0.0097468647600343922  0.66396870545014575        1.5695503342285426e-12              6.3084045859638617e-11       
                       1.5203072911462376e-17                          265                                         2190.9828776641029                  -1.6473652700477488e-08                -2.5797216313202223e-20              6.7651840031197447e-18             34.14866026558007                      38.278003339392413                       38.278003339392413             8.4384210019672992e-18  -5.3209362466747006e-22      43                            43                          0                     0.0042342665276756094 -0.0099811327653909643  0.67228044599498871        1.5645360369314396e-12              6.464858189657006e-11       