# OOMMF OVF 2.0
#
# Segment count: 1
#
# Begin: Segment
# Begin: Header
#
# Title: Oxs_MinDriver::Magnetization
# Desc: Oxs vector field output
# Desc:  MIF source file: /home/ryan/Git/joommf/tools/omfvis/cube_example.mif
# Desc:  Iteration: 3562, State id: 7436
# Desc:  Stage: 15, Stage iteration: 98
# Desc:  Stage simulation time: 0 s
# Desc:  Total simulation time: -2 s
# meshunit: m
# meshtype: rectangular
# xbase: 2.5000000000000001e-09
# ybase: 2.5000000000000001e-09
# zbase: 2.5000000000000001e-09
# xnodes: 10
# ynodes: 10
# znodes: 10
# xstepsize: 5.0000000000000001e-09
# ystepsize: 5.0000000000000001e-09
# zstepsize: 5.0000000000000001e-09
# xmin: 0
# ymin: 0
# zmin: 0
# xmax: 4.9999999999999998e-08
# ymax: 4.9999999999999998e-08
# zmax: 4.9999999999999998e-08
# valuedim: 3
# valuelabels: Magnetization_x Magnetization_y Magnetization_z
# valueunits: A/m A/m A/m
#
# End: Header
#
# Begin: Data Text
 555542.00 -53079.415 573197.76
 590209.78 -30255.382 539200.36
 614802.00 21558.437 511423.24
 616652.30 98051.915 500125.75
 589097.47 192837.60 505744.82
 527298.91 296900.28 523264.84
 429659.30 397641.47 545228.52
 302146.95 480560.03 563710.27
 163822.79 533904.09 572807.57
 53079.415 555542.00 573197.76
 533904.09 -163822.79 572807.57
 570162.23 -129623.26 545997.11
 597217.52 -60882.896 528795.34
 600251.29 39101.618 527417.72
 569836.44 163109.84 537290.99
 500329.78 296874.60 549122.56
 393808.87 420143.22 555332.55
 262663.20 514386.63 553547.15
 129623.26 570162.23 545997.11
 30255.382 590209.78 539200.36
 480560.03 -302146.95 563710.27
 514386.63 -262663.20 553547.15
 541148.38 -180378.66 560911.73
 543625.80 -54627.634 584368.73
 507790.98 107807.23 608708.41
 427010.53 282934.82 614499.71
 310556.51 435414.65 594952.71
 180378.66 541148.38 560911.73
 60882.896 597217.52 528795.34
 -21558.438 614802.00 511423.24
 397641.47 -429659.30 545228.52
 420143.22 -393808.87 555332.55
 435414.65 -310556.51 594952.71
 427235.70 -169877.53 654684.11
 379500.02 26900.135 703744.35
 287519.44 244844.58 705254.36
 169877.53 427235.70 654684.11
 54627.634 543625.80 584368.73
 -39101.618 600251.29 527417.72
 -98051.915 616652.30 500125.75
 296900.28 -527298.91 523264.84
 296874.60 -500329.78 549122.56
 282934.82 -427010.53 614499.71
 244844.58 -287519.43 705254.36
 173223.64 -74062.511 777501.33
 74062.511 173223.64 777501.33
 -26900.134 379500.02 703744.35
 -107807.23 507790.98 608708.41
 -163109.84 569836.44 537290.99
 -192837.60 589097.47 505744.82
 192837.60 -589097.47 505744.82
 163109.84 -569836.44 537290.99
 107807.23 -507790.98 608708.41
 26900.135 -379500.02 703744.35
 -74062.512 -173223.64 777501.33
 -173223.64 74062.511 777501.33
 -244844.58 287519.43 705254.36
 -282934.82 427010.53 614499.71
 -296874.60 500329.78 549122.56
 -296900.28 527298.91 523264.84
 98051.915 -616652.30 500125.75
 39101.618 -600251.29 527417.72
 -54627.633 -543625.80 584368.73
 -169877.53 -427235.70 654684.11
 -287519.43 -244844.58 705254.36
 -379500.02 -26900.135 703744.35
 -427235.70 169877.53 654684.11
 -435414.65 310556.51 594952.71
 -420143.22 393808.87 555332.55
 -397641.47 429659.30 545228.52
 21558.437 -614802.00 511423.24
 -60882.896 -597217.52 528795.34
 -180378.66 -541148.38 560911.73
 -310556.51 -435414.65 594952.71
 -427010.53 -282934.82 614499.71
 -507790.98 -107807.23 608708.41
 -543625.80 54627.633 584368.73
 -541148.38 180378.66 560911.73
 -514386.63 262663.20 553547.15
 -480560.03 302146.95 563710.27
 -30255.382 -590209.78 539200.36
 -129623.26 -570162.23 545997.11
 -262663.20 -514386.63 553547.15
 -393808.87 -420143.22 555332.55
 -500329.78 -296874.60 549122.56
 -569836.44 -163109.84 537290.99
 -600251.29 -39101.618 527417.72
 -597217.52 60882.896 528795.34
 -570162.23 129623.26 545997.11
 -533904.09 163822.79 572807.57
 -53079.415 -555542.00 573197.76
 -163822.79 -533904.09 572807.57
 -302146.95 -480560.03 563710.27
 -429659.30 -397641.47 545228.52
 -527298.91 -296900.28 523264.84
 -589097.47 -192837.60 505744.82
 -616652.30 -98051.915 500125.75
 -614802.00 -21558.438 511423.24
 -590209.78 30255.382 539200.36
 -555542.00 53079.415 573197.76
 508986.81 -93031.080 610145.59
 549447.69 -71906.288 577006.69
 582500.64 -22939.711 547874.78
 593382.07 49083.732 534311.24
 575880.58 138318.87 537800.57
 525660.41 237418.80 554358.59
 440582.46 335934.16 577092.14
 325012.71 420820.00 597726.75
 196390.58 480040.07 609091.35
 93031.080 508986.81 610145.59
 480040.07 -196390.58 609091.35
 520941.90 -161254.89 585334.43
 554839.13 -95331.160 568388.52
 565612.84 -1530.9532 565755.93
 545321.07 114285.69 574076.40
 489220.66 240729.86 585416.33
 398126.62 360967.86 592619.10
 281826.66 457944.54 592334.82
 161254.89 520941.90 585334.43
 71906.288 549447.69 577006.69
 420820.00 -325012.71 597726.75
 457944.54 -281826.66 592334.81
 488819.90 -201161.27 600490.84
 496807.13 -82952.894 621531.57
 471689.29 67054.304 642660.82
 408592.32 230171.12 648130.83
 313008.37 378263.82 631618.75
 201161.27 488819.90 600490.84
 95331.160 554839.13 568388.52
 22939.711 582500.64 547874.78
 335934.16 -440582.46 577092.14
 360967.86 -398126.62 592619.10
 378263.82 -313008.37 631618.75
 374175.07 -178688.87 684151.52
 339057.15 1222.1422 724595.58
 270400.84 199596.06 725978.51
 178688.87 374175.08 684151.52
 82952.893 496807.13 621531.57
 1530.9538 565612.84 565755.93
 -49083.732 593382.07 534311.24
 237418.80 -525660.41 554358.59
 240729.86 -489220.67 585416.33
 230171.11 -408592.32 648130.83
 199596.06 -270400.84 725978.51
 146157.26 -74642.786 782985.64
 74642.786 146157.27 782985.64
 -1222.1428 339057.15 724595.58
 -67054.304 471689.29 642660.82
 -114285.69 545321.07 574076.40
 -138318.87 575880.58 537800.57
 138318.87 -575880.58 537800.57
 114285.69 -545321.07 574076.40
 67054.306 -471689.29 642660.82
 1222.1408 -339057.15 724595.58
 -74642.784 -146157.26 782985.64
 -146157.27 74642.784 782985.64
 -199596.06 270400.85 725978.51
 -230171.12 408592.32 648130.83
 -240729.86 489220.66 585416.33
 -237418.80 525660.41 554358.59
 49083.732 -593382.07 534311.24
 -1530.9527 -565612.84 565755.93
 -82952.894 -496807.13 621531.57
 -178688.87 -374175.07 684151.52
 -270400.85 -199596.06 725978.51
 -339057.15 -1222.1412 724595.58
 -374175.08 178688.87 684151.52
 -378263.82 313008.37 631618.75
 -360967.86 398126.62 592619.10
 -335934.16 440582.46 577092.14
 -22939.711 -582500.64 547874.78
 -95331.160 -554839.13 568388.52
 -201161.27 -488819.90 600490.84
 -313008.37 -378263.82 631618.75
 -408592.32 -230171.11 648130.83
 -471689.29 -67054.305 642660.82
 -496807.13 82952.894 621531.57
 -488819.90 201161.27 600490.84
 -457944.54 281826.66 592334.82
 -420820.00 325012.71 597726.75
 -71906.288 -549447.69 577006.69
 -161254.89 -520941.90 585334.43
 -281826.66 -457944.54 592334.81
 -398126.62 -360967.86 592619.10
 -489220.66 -240729.86 585416.33
 -545321.07 -114285.69 574076.40
 -565612.84 1530.9531 565755.93
 -554839.13 95331.160 568388.52
 -520941.90 161254.89 585334.43
 -480040.07 196390.58 609091.35
 -93031.080 -508986.81 610145.59
 -196390.58 -480040.07 609091.35
 -325012.71 -420820.00 597726.75
 -440582.46 -335934.16 577092.14
 -525660.41 -237418.80 554358.59
 -575880.57 -138318.87 537800.57
 -593382.07 -49083.732 534311.24
 -582500.64 22939.711 547874.78
 -549447.69 71906.288 577006.69
 -508986.81 93031.081 610145.59
 447307.44 -145969.97 646999.86
 493761.18 -122995.70 617310.26
 536385.53 -74252.867 588877.81
 558195.15 -5290.8607 573053.38
 553033.78 78294.536 572733.45
 517489.46 170706.55 585716.60
 449647.45 264171.10 606655.42
 352355.94 348327.32 628102.99
 239708.51 411963.14 642515.53
 145969.97 447307.44 646999.86
 411963.14 -239708.51 642515.53
 456770.84 -203087.73 624592.49
 498530.57 -138220.24 610215.08
 519486.96 -49403.197 606376.64
 512369.59 57898.845 611657.69
 473456.88 174981.60 620660.96
 402761.16 289297.98 627765.98
 306992.32 386914.84 629327.12
 203087.73 456770.84 624592.49
 122995.70 493761.18 617310.26
 348327.32 -352355.94 628102.99
 386914.84 -306992.32 629327.12
 422891.26 -227177.98 639963.40
 439449.39 -115766.13 658393.83
 428495.67 21296.625 675231.75
 386423.33 170051.83 679528.80
 315828.27 310139.52 666382.76
 227177.98 422891.26 639963.40
 138220.24 498530.57 610215.08
 74252.867 536385.53 588877.81
 264171.10 -449647.45 606655.42
 289297.99 -402761.16 627765.98
 310139.52 -315828.27 666382.76
 314272.47 -188083.46 711236.55
 295389.09 -25580.841 743028.20
 251719.75 151574.14 744084.97
 188083.46 314272.47 711236.55
 115766.14 439449.40 658393.83
 49403.197 519486.96 606376.64
 5290.8611 558195.15 573053.38
 170706.55 -517489.46 585716.60
 174981.59 -473456.88 620660.96
 170051.83 -386423.33 679528.80
 151574.13 -251719.75 744084.97
 119034.42 -75038.396 787527.81
 75038.395 119034.42 787527.81
 25580.842 295389.09 743028.20
 -21296.626 428495.67 675231.75
 -57898.844 512369.59 611657.69
 -78294.536 553033.78 572733.45
 78294.535 -553033.78 572733.45
 57898.845 -512369.59 611657.69
 21296.624 -428495.67 675231.75
 -25580.839 -295389.09 743028.20
 -75038.397 -119034.42 787527.81
 -119034.42 75038.396 787527.81
 -151574.14 251719.75 744084.97
 -170051.83 386423.33 679528.80
 -174981.60 473456.88 620660.96
 -170706.55 517489.46 585716.60
 -5290.8607 -558195.15 573053.38
 -49403.197 -519486.96 606376.64
 -115766.13 -439449.39 658393.83
 -188083.46 -314272.47 711236.55
 -251719.75 -151574.13 744084.97
 -295389.09 25580.840 743028.20
 -314272.47 188083.46 711236.55
 -310139.52 315828.27 666382.76
 -289297.98 402761.16 627765.98
 -264171.10 449647.45 606655.42
 -74252.867 -536385.53 588877.81
 -138220.24 -498530.57 610215.08
 -227177.98 -422891.26 639963.40
 -315828.27 -310139.52 666382.76
 -386423.33 -170051.83 679528.80
 -428495.67 -21296.624 675231.75
 -439449.40 115766.13 658393.83
 -422891.26 227177.98 639963.40
 -386914.84 306992.32 629327.12
 -348327.32 352355.94 628102.99
 -122995.70 -493761.18 617310.26
 -203087.73 -456770.84 624592.49
 -306992.32 -386914.84 629327.12
 -402761.16 -289297.99 627765.98
 -473456.88 -174981.59 620660.96
 -512369.59 -57898.845 611657.69
 -519486.96 49403.197 606376.64
 -498530.57 138220.24 610215.08
 -456770.84 203087.73 624592.49
 -411963.14 239708.51 642515.53
 -145969.97 -447307.44 646999.86
 -239708.51 -411963.14 642515.53
 -352355.94 -348327.32 628102.99
 -449647.45 -264171.10 606655.42
 -517489.46 -170706.55 585716.60
 -553033.78 -78294.536 572733.45
 -558195.15 5290.8608 573053.38
 -536385.53 74252.867 588877.81
 -493761.18 122995.70 617310.26
 -447307.44 145969.97 646999.86
 381206.77 -201620.52 673817.90
 434756.91 -174585.29 648464.66
 487819.09 -123273.23 621961.61
 521342.37 -54578.670 604337.08
 528947.23 25563.869 599634.32
 508122.00 112183.80 607640.38
 457646.47 199579.10 625082.31
 379466.77 280003.56 646222.08
 284355.66 343728.11 664072.92
 201620.52 381206.77 673817.90
 343728.11 -284355.66 664072.92
 393181.95 -245593.29 651990.71
 443615.58 -179636.16 641042.95
 475723.51 -92780.138 636458.16
 482130.92 8913.5349 638334.02
 459797.45 118164.70 643912.58
 408540.35 225678.77 649741.39
 332836.84 320761.12 652940.99
 245593.29 393181.95 651990.71
 174585.29 434756.91 648464.66
 280003.56 -379466.77 646222.08
 320761.12 -332836.84 652940.99
 363039.76 -252933.34 666503.45
 389628.21 -145453.31 683398.27
 392846.36 -17349.752 696685.52
 369507.58 120038.33 699324.63
 320670.24 251729.80 688333.28
 252933.34 363039.76 666503.45
 179636.16 443615.58 641042.95
 123273.23 487819.09 621961.61
 199579.10 -457646.47 625082.31
 225678.77 -408540.35 649741.39
 251729.80 -320670.24 688333.28
 265766.65 -197709.72 728202.55
 262132.12 -47521.549 754339.75
 238796.72 113955.83 754976.95
 197709.72 265766.65 728202.55
 145453.31 389628.21 683398.27
 92780.139 475723.51 636458.16
 54578.670 521342.37 604337.08
 112183.80 -508122.00 607640.38
 118164.70 -459797.45 643912.58
 120038.33 -369507.58 699324.63
 113955.83 -238796.72 754976.95
 99085.698 -76164.255 790177.85
 76164.257 99085.698 790177.85
 47521.548 262132.12 754339.75
 17349.753 392846.37 696685.52
 -8913.5357 482130.92 638334.02
 -25563.869 528947.23 599634.32
 25563.869 -528947.23 599634.32
 8913.5360 -482130.92 638334.02
 -17349.753 -392846.37 696685.52
 -47521.548 -262132.12 754339.75
 -76164.255 -99085.699 790177.85
 -99085.699 76164.256 790177.85
 -113955.83 238796.73 754976.95
 -120038.33 369507.58 699324.64
 -118164.70 459797.45 643912.58
 -112183.80 508122.00 607640.38
 -54578.670 -521342.37 604337.08
 -92780.139 -475723.51 636458.16
 -145453.31 -389628.21 683398.27
 -197709.72 -265766.65 728202.55
 -238796.73 -113955.83 754976.95
 -262132.11 47521.548 754339.75
 -265766.65 197709.72 728202.55
 -251729.80 320670.24 688333.28
 -225678.77 408540.35 649741.39
 -199579.10 457646.47 625082.31
 -123273.23 -487819.09 621961.61
 -179636.16 -443615.58 641042.95
 -252933.34 -363039.76 666503.45
 -320670.24 -251729.80 688333.28
 -369507.58 -120038.33 699324.64
 -392846.37 17349.753 696685.52
 -389628.21 145453.31 683398.27
 -363039.76 252933.34 666503.45
 -320761.12 332836.84 652940.99
 -280003.56 379466.77 646222.08
 -174585.29 -434756.91 648464.66
 -245593.29 -393181.95 651990.71
 -332836.84 -320761.12 652940.99
 -408540.35 -225678.77 649741.39
 -459797.45 -118164.70 643912.58
 -482130.92 -8913.5357 638334.02
 -475723.51 92780.138 636458.16
 -443615.58 179636.16 641042.95
 -393181.95 245593.29 651990.71
 -343728.11 284355.66 664072.92
 -201620.52 -381206.77 673817.90
 -284355.66 -343728.11 664072.92
 -379466.77 -280003.56 646222.08
 -457646.47 -199579.10 625082.31
 -508122.00 -112183.80 607640.38
 -528947.23 -25563.869 599634.32
 -521342.37 54578.670 604337.08
 -487819.09 123273.23 621961.61
 -434756.91 174585.29 648464.66
 -381206.77 201620.52 673817.90
 317443.78 -258107.41 687466.37
 379435.00 -226369.33 666922.79
 444399.89 -170733.26 642929.93
 490763.95 -99625.276 623879.43
 511482.63 -19875.567 614809.31
 504659.65 63511.746 617482.71
 469886.19 145890.39 630811.35
 408835.40 221341.96 651046.35
 329925.61 281710.79 672151.86
 258107.41 317443.78 687466.37
 281710.79 -329925.61 672151.86
 337029.66 -288924.09 665532.78
 397538.86 -220433.52 658309.89
 441910.90 -132541.46 653565.24
 461913.19 -32523.387 652363.73
 454685.95 72424.988 654228.79
 420143.56 174641.75 658011.89
 361558.75 265771.93 662299.44
 288924.09 337029.66 665532.78
 226369.33 379435.00 666922.79
 221341.96 -408835.40 651046.35
 265771.93 -361558.75 662299.44
 316001.17 -280813.32 679181.22
 353793.89 -174104.50 696072.91
 370715.23 -49704.611 707177.26
 363308.79 81637.193 708055.15
 331853.53 207511.28 697719.36
 280813.32 316001.17 679181.22
 220433.52 397538.86 658309.89
 170733.26 444399.89 642929.93
 145890.39 -469886.19 630811.35
 174641.74 -420143.56 658011.89
 207511.28 -331853.53 697719.36
 232166.16 -210922.26 735942.03
 242249.11 -66489.995 759535.68
 234996.45 86965.768 759745.76
 210922.26 232166.16 735942.03
 174104.50 353793.89 696072.91
 132541.46 441910.90 653565.24
 99625.276 490763.95 623879.43
 63511.746 -504659.65 617482.71
 72424.990 -454685.95 654228.79
 81637.190 -363308.79 708055.15
 86965.771 -234996.45 759745.76
 86446.073 -79420.858 791340.26
 79420.858 86446.075 791340.26
 66489.996 242249.11 759535.68
 49704.611 370715.22 707177.26
 32523.388 461913.19 652363.73
 19875.567 511482.63 614809.31
 -19875.566 -511482.63 614809.31
 -32523.389 -461913.19 652363.73
 -49704.609 -370715.23 707177.26
 -66489.997 -242249.11 759535.68
 -79420.857 -86446.073 791340.26
 -86446.074 79420.856 791340.26
 -86965.770 234996.45 759745.76
 -81637.191 363308.79 708055.15
 -72424.989 454685.95 654228.79
 -63511.746 504659.65 617482.71
 -99625.276 -490763.95 623879.43
 -132541.46 -441910.90 653565.24
 -174104.51 -353793.89 696072.91
 -210922.26 -232166.16 735942.03
 -234996.45 -86965.771 759745.76
 -242249.12 66489.997 759535.68
 -232166.16 210922.26 735942.03
 -207511.28 331853.53 697719.36
 -174641.74 420143.56 658011.89
 -145890.39 469886.19 630811.35
 -170733.26 -444399.89 642929.93
 -220433.52 -397538.86 658309.89
 -280813.32 -316001.17 679181.22
 -331853.53 -207511.28 697719.36
 -363308.79 -81637.190 708055.15
 -370715.22 49704.609 707177.26
 -353793.90 174104.50 696072.91
 -316001.17 280813.32 679181.22
 -265771.93 361558.75 662299.44
 -221341.96 408835.40 651046.35
 -226369.33 -379435.00 666922.79
 -288924.09 -337029.66 665532.78
 -361558.75 -265771.93 662299.44
 -420143.56 -174641.75 658011.89
 -454685.95 -72424.990 654228.79
 -461913.19 32523.389 652363.73
 -441910.90 132541.46 653565.24
 -397538.86 220433.52 658309.89
 -337029.66 288924.09 665532.78
 -281710.79 329925.61 672151.86
 -258107.41 -317443.78 687466.37
 -329925.61 -281710.79 672151.86
 -408835.40 -221341.96 651046.35
 -469886.19 -145890.39 630811.35
 -504659.65 -63511.746 617482.71
 -511482.63 19875.566 614809.31
 -490763.95 99625.276 623879.43
 -444399.89 170733.26 642929.93
 -379435.00 226369.33 666922.79
 -317443.78 258107.41 687466.37
 258107.41 -317443.78 687466.37
 329925.61 -281710.79 672151.86
 408835.40 -221341.96 651046.35
 469886.19 -145890.39 630811.35
 504659.65 -63511.746 617482.71
 511482.63 19875.566 614809.31
 490763.95 99625.276 623879.43
 444399.89 170733.26 642929.93
 379435.00 226369.33 666922.79
 317443.78 258107.41 687466.37
 226369.33 -379435.00 666922.79
 288924.09 -337029.66 665532.78
 361558.75 -265771.93 662299.44
 420143.56 -174641.74 658011.89
 454685.95 -72424.990 654228.79
 461913.19 32523.389 652363.73
 441910.90 132541.46 653565.24
 397538.86 220433.52 658309.89
 337029.66 288924.09 665532.78
 281710.79 329925.61 672151.86
 170733.26 -444399.89 642929.93
 220433.52 -397538.86 658309.89
 280813.32 -316001.17 679181.22
 331853.53 -207511.28 697719.36
 363308.79 -81637.190 708055.15
 370715.23 49704.609 707177.26
 353793.89 174104.51 696072.91
 316001.17 280813.32 679181.23
 265771.93 361558.75 662299.44
 221341.96 408835.40 651046.35
 99625.276 -490763.95 623879.43
 132541.46 -441910.90 653565.24
 174104.50 -353793.89 696072.91
 210922.26 -232166.16 735942.03
 234996.45 -86965.771 759745.76
 242249.12 66489.998 759535.68
 232166.16 210922.26 735942.03
 207511.29 331853.53 697719.36
 174641.74 420143.56 658011.89
 145890.39 469886.19 630811.35
 19875.567 -511482.63 614809.31
 32523.387 -461913.19 652363.73
 49704.611 -370715.23 707177.26
 66489.995 -242249.11 759535.68
 79420.858 -86446.073 791340.26
 86446.073 79420.856 791340.26
 86965.771 234996.45 759745.76
 81637.190 363308.79 708055.15
 72424.990 454685.95 654228.79
 63511.746 504659.65 617482.71
 -63511.746 -504659.65 617482.71
 -72424.988 -454685.95 654228.79
 -81637.193 -363308.79 708055.15
 -86965.769 -234996.45 759745.76
 -86446.075 -79420.858 791340.26
 -79420.857 86446.075 791340.26
 -66489.997 242249.11 759535.68
 -49704.610 370715.22 707177.26
 -32523.388 461913.19 652363.73
 -19875.566 511482.63 614809.31
 -145890.39 -469886.19 630811.35
 -174641.75 -420143.56 658011.89
 -207511.28 -331853.53 697719.36
 -232166.16 -210922.26 735942.03
 -242249.11 -66489.996 759535.68
 -234996.45 86965.769 759745.76
 -210922.26 232166.16 735942.03
 -174104.50 353793.90 696072.91
 -132541.46 441910.90 653565.24
 -99625.276 490763.95 623879.43
 -221341.96 -408835.40 651046.35
 -265771.93 -361558.75 662299.44
 -316001.17 -280813.32 679181.22
 -353793.89 -174104.51 696072.91
 -370715.22 -49704.611 707177.26
 -363308.79 81637.192 708055.15
 -331853.53 207511.28 697719.36
 -280813.32 316001.17 679181.22
 -220433.52 397538.86 658309.89
 -170733.26 444399.89 642929.93
 -281710.79 -329925.61 672151.86
 -337029.66 -288924.09 665532.78
 -397538.86 -220433.52 658309.89
 -441910.90 -132541.46 653565.24
 -461913.19 -32523.387 652363.73
 -454685.95 72424.988 654228.79
 -420143.56 174641.75 658011.89
 -361558.75 265771.93 662299.44
 -288924.09 337029.66 665532.78
 -226369.33 379435.00 666922.79
 -317443.78 -258107.41 687466.37
 -379435.00 -226369.33 666922.79
 -444399.89 -170733.26 642929.93
 -490763.95 -99625.276 623879.43
 -511482.63 -19875.567 614809.31
 -504659.65 63511.746 617482.71
 -469886.19 145890.39 630811.35
 -408835.40 221341.96 651046.35
 -329925.61 281710.79 672151.86
 -258107.41 317443.78 687466.37
 201620.52 -381206.77 673817.90
 284355.66 -343728.11 664072.92
 379466.77 -280003.56 646222.08
 457646.47 -199579.10 625082.31
 508122.00 -112183.80 607640.38
 528947.23 -25563.868 599634.32
 521342.37 54578.670 604337.08
 487819.09 123273.23 621961.61
 434756.91 174585.29 648464.66
 381206.77 201620.52 673817.90
 174585.29 -434756.91 648464.66
 245593.29 -393181.95 651990.71
 332836.84 -320761.12 652940.99
 408540.35 -225678.77 649741.39
 459797.45 -118164.70 643912.58
 482130.92 -8913.5360 638334.02
 475723.51 92780.139 636458.16
 443615.58 179636.16 641042.95
 393181.95 245593.29 651990.71
 343728.11 284355.66 664072.92
 123273.23 -487819.09 621961.61
 179636.16 -443615.58 641042.95
 252933.34 -363039.76 666503.45
 320670.24 -251729.80 688333.28
 369507.58 -120038.33 699324.63
 392846.37 17349.754 696685.52
 389628.21 145453.31 683398.27
 363039.76 252933.34 666503.45
 320761.12 332836.84 652940.99
 280003.56 379466.77 646222.08
 54578.670 -521342.37 604337.08
 92780.138 -475723.51 636458.16
 145453.31 -389628.21 683398.27
 197709.72 -265766.65 728202.55
 238796.73 -113955.83 754976.95
 262132.12 47521.548 754339.75
 265766.65 197709.72 728202.55
 251729.80 320670.24 688333.28
 225678.77 408540.35 649741.39
 199579.10 457646.47 625082.31
 -25563.869 -528947.23 599634.32
 -8913.5349 -482130.92 638334.02
 17349.752 -392846.36 696685.52
 47521.549 -262132.12 754339.75
 76164.255 -99085.699 790177.85
 99085.699 76164.256 790177.85
 113955.83 238796.72 754976.95
 120038.33 369507.58 699324.63
 118164.70 459797.45 643912.58
 112183.80 508122.00 607640.38
 -112183.80 -508122.00 607640.38
 -118164.70 -459797.45 643912.58
 -120038.33 -369507.58 699324.63
 -113955.83 -238796.72 754976.95
 -99085.698 -76164.256 790177.85
 -76164.256 99085.698 790177.85
 -47521.548 262132.12 754339.75
 -17349.753 392846.37 696685.52
 8913.5357 482130.93 638334.02
 25563.869 528947.23 599634.32
 -199579.10 -457646.47 625082.31
 -225678.77 -408540.35 649741.39
 -251729.80 -320670.24 688333.28
 -265766.65 -197709.72 728202.55
 -262132.12 -47521.548 754339.75
 -238796.73 113955.83 754976.95
 -197709.72 265766.65 728202.55
 -145453.31 389628.21 683398.27
 -92780.138 475723.51 636458.16
 -54578.670 521342.37 604337.08
 -280003.56 -379466.77 646222.08
 -320761.12 -332836.84 652940.99
 -363039.76 -252933.34 666503.45
 -389628.21 -145453.31 683398.27
 -392846.37 -17349.753 696685.52
 -369507.58 120038.33 699324.64
 -320670.24 251729.80 688333.28
 -252933.34 363039.76 666503.45
 -179636.16 443615.58 641042.95
 -123273.23 487819.09 621961.61
 -343728.11 -284355.66 664072.92
 -393181.95 -245593.29 651990.71
 -443615.58 -179636.16 641042.95
 -475723.51 -92780.138 636458.16
 -482130.92 8913.5353 638334.02
 -459797.45 118164.70 643912.58
 -408540.35 225678.77 649741.39
 -332836.84 320761.12 652940.99
 -245593.29 393181.95 651990.71
 -174585.29 434756.91 648464.66
 -381206.77 -201620.52 673817.90
 -434756.91 -174585.29 648464.66
 -487819.09 -123273.23 621961.61
 -521342.37 -54578.670 604337.08
 -528947.23 25563.869 599634.32
 -508122.00 112183.80 607640.38
 -457646.47 199579.10 625082.31
 -379466.77 280003.56 646222.08
 -284355.66 343728.11 664072.92
 -201620.52 381206.77 673817.90
 145969.97 -447307.44 646999.86
 239708.51 -411963.14 642515.53
 352355.94 -348327.32 628102.99
 449647.45 -264171.10 606655.42
 517489.46 -170706.55 585716.60
 553033.78 -78294.536 572733.45
 558195.15 5290.8608 573053.38
 536385.53 74252.867 588877.81
 493761.18 122995.70 617310.26
 447307.44 145969.97 646999.86
 122995.70 -493761.18 617310.26
 203087.73 -456770.84 624592.49
 306992.32 -386914.84 629327.12
 402761.16 -289297.99 627765.98
 473456.88 -174981.59 620660.96
 512369.59 -57898.845 611657.69
 519486.95 49403.197 606376.64
 498530.57 138220.24 610215.08
 456770.84 203087.73 624592.49
 411963.14 239708.51 642515.53
 74252.867 -536385.53 588877.81
 138220.24 -498530.57 610215.08
 227177.98 -422891.26 639963.40
 315828.27 -310139.52 666382.76
 386423.33 -170051.83 679528.80
 428495.67 -21296.625 675231.75
 439449.40 115766.13 658393.83
 422891.26 227177.98 639963.40
 386914.84 306992.32 629327.12
 348327.32 352355.94 628102.99
 5290.8606 -558195.15 573053.38
 49403.198 -519486.95 606376.64
 115766.13 -439449.39 658393.83
 188083.46 -314272.47 711236.55
 251719.75 -151574.13 744084.97
 295389.09 25580.840 743028.20
 314272.47 188083.46 711236.55
 310139.52 315828.27 666382.76
 289297.99 402761.16 627765.98
 264171.10 449647.45 606655.42
 -78294.535 -553033.78 572733.45
 -57898.845 -512369.59 611657.69
 -21296.624 -428495.67 675231.75
 25580.841 -295389.09 743028.20
 75038.396 -119034.42 787527.81
 119034.42 75038.396 787527.81
 151574.14 251719.75 744084.97
 170051.83 386423.33 679528.80
 174981.59 473456.88 620660.96
 170706.55 517489.46 585716.60
 -170706.55 -517489.46 585716.60
 -174981.59 -473456.88 620660.96
 -170051.83 -386423.33 679528.80
 -151574.14 -251719.75 744084.97
 -119034.42 -75038.395 787527.81
 -75038.396 119034.42 787527.81
 -25580.840 295389.09 743028.20
 21296.624 428495.67 675231.75
 57898.845 512369.59 611657.69
 78294.535 553033.78 572733.45
 -264171.10 -449647.45 606655.42
 -289297.98 -402761.16 627765.98
 -310139.52 -315828.27 666382.76
 -314272.47 -188083.46 711236.55
 -295389.09 -25580.841 743028.20
 -251719.75 151574.14 744084.97
 -188083.46 314272.47 711236.55
 -115766.13 439449.39 658393.83
 -49403.197 519486.96 606376.64
 -5290.8607 558195.15 573053.38
 -348327.32 -352355.94 628102.99
 -386914.84 -306992.32 629327.12
 -422891.26 -227177.98 639963.40
 -439449.39 -115766.14 658393.83
 -428495.67 21296.625 675231.75
 -386423.33 170051.83 679528.80
 -315828.27 310139.52 666382.76
 -227177.98 422891.26 639963.40
 -138220.24 498530.57 610215.08
 -74252.867 536385.53 588877.81
 -411963.14 -239708.51 642515.53
 -456770.84 -203087.73 624592.49
 -498530.57 -138220.24 610215.08
 -519486.96 -49403.197 606376.64
 -512369.59 57898.845 611657.69
 -473456.88 174981.60 620660.96
 -402761.16 289297.98 627765.98
 -306992.32 386914.84 629327.12
 -203087.73 456770.84 624592.49
 -122995.70 493761.18 617310.26
 -447307.44 -145969.97 646999.86
 -493761.18 -122995.70 617310.26
 -536385.53 -74252.867 588877.81
 -558195.15 -5290.8610 573053.38
 -553033.78 78294.536 572733.45
 -517489.46 170706.55 585716.60
 -449647.45 264171.10 606655.42
 -352355.94 348327.32 628102.99
 -239708.51 411963.14 642515.53
 -145969.97 447307.44 646999.86
 93031.080 -508986.81 610145.59
 196390.58 -480040.07 609091.35
 325012.71 -420820.00 597726.75
 440582.46 -335934.16 577092.14
 525660.41 -237418.80 554358.59
 575880.58 -138318.87 537800.57
 593382.07 -49083.732 534311.24
 582500.64 22939.711 547874.78
 549447.69 71906.288 577006.69
 508986.81 93031.080 610145.59
 71906.288 -549447.69 577006.69
 161254.89 -520941.90 585334.43
 281826.66 -457944.54 592334.81
 398126.62 -360967.86 592619.10
 489220.66 -240729.86 585416.33
 545321.07 -114285.69 574076.40
 565612.84 1530.9532 565755.93
 554839.13 95331.160 568388.52
 520941.90 161254.89 585334.43
 480040.07 196390.58 609091.35
 22939.711 -582500.64 547874.78
 95331.161 -554839.13 568388.52
 201161.27 -488819.90 600490.84
 313008.37 -378263.82 631618.75
 408592.32 -230171.11 648130.83
 471689.29 -67054.305 642660.82
 496807.13 82952.894 621531.57
 488819.90 201161.27 600490.84
 457944.54 281826.66 592334.82
 420820.00 325012.71 597726.75
 -49083.731 -593382.07 534311.24
 1530.9529 -565612.84 565755.93
 82952.894 -496807.13 621531.57
 178688.87 -374175.07 684151.52
 270400.85 -199596.06 725978.51
 339057.15 -1222.1413 724595.58
 374175.07 178688.87 684151.52
 378263.82 313008.37 631618.75
 360967.86 398126.62 592619.10
 335934.16 440582.46 577092.14
 -138318.87 -575880.58 537800.57
 -114285.69 -545321.07 574076.40
 -67054.305 -471689.29 642660.82
 -1222.1420 -339057.15 724595.58
 74642.786 -146157.26 782985.64
 146157.26 74642.785 782985.64
 199596.06 270400.85 725978.51
 230171.11 408592.32 648130.83
 240729.86 489220.66 585416.33
 237418.80 525660.41 554358.59
 -237418.80 -525660.41 554358.59
 -240729.86 -489220.66 585416.33
 -230171.11 -408592.32 648130.83
 -199596.06 -270400.84 725978.51
 -146157.27 -74642.786 782985.64
 -74642.784 146157.27 782985.64
 1222.1411 339057.15 724595.58
 67054.305 471689.29 642660.82
 114285.69 545321.07 574076.40
 138318.87 575880.57 537800.57
 -335934.16 -440582.46 577092.14
 -360967.86 -398126.62 592619.10
 -378263.82 -313008.37 631618.75
 -374175.08 -178688.87 684151.52
 -339057.15 1222.1428 724595.58
 -270400.85 199596.06 725978.51
 -178688.87 374175.08 684151.52
 -82952.894 496807.14 621531.57
 -1530.9529 565612.84 565755.93
 49083.732 593382.07 534311.24
 -420820.00 -325012.71 597726.75
 -457944.54 -281826.66 592334.82
 -488819.90 -201161.27 600490.84
 -496807.13 -82952.893 621531.57
 -471689.29 67054.304 642660.82
 -408592.32 230171.12 648130.83
 -313008.37 378263.82 631618.75
 -201161.27 488819.90 600490.84
 -95331.160 554839.13 568388.52
 -22939.711 582500.64 547874.78
 -480040.07 -196390.58 609091.35
 -520941.90 -161254.89 585334.43
 -554839.13 -95331.160 568388.52
 -565612.84 -1530.9539 565755.93
 -545321.07 114285.69 574076.40
 -489220.66 240729.86 585416.33
 -398126.62 360967.86 592619.10
 -281826.66 457944.54 592334.81
 -161254.89 520941.90 585334.43
 -71906.288 549447.69 577006.69
 -508986.81 -93031.081 610145.59
 -549447.69 -71906.288 577006.69
 -582500.64 -22939.711 547874.78
 -593382.07 49083.732 534311.24
 -575880.58 138318.87 537800.57
 -525660.41 237418.80 554358.59
 -440582.46 335934.16 577092.14
 -325012.71 420820.00 597726.75
 -196390.58 480040.07 609091.35
 -93031.081 508986.81 610145.59
 53079.415 -555542.00 573197.76
 163822.79 -533904.09 572807.57
 302146.95 -480560.03 563710.27
 429659.30 -397641.47 545228.52
 527298.91 -296900.28 523264.84
 589097.47 -192837.60 505744.82
 616652.30 -98051.915 500125.75
 614802.00 -21558.438 511423.24