# OOMMF OVF 2.0
#
# Segment count: 1
#
# Begin: Segment
# Begin: Header
#
# Title: Oxs_MinDriver::Magnetization
# Desc: Oxs vector field output
# Desc:  MIF source file: /home/ryan/Git/joommf/tools/omfvis/cube_example.mif
# Desc:  Iteration: 5541, State id: 11770
# Desc:  Stage: 38, Stage iteration: 33
# Desc:  Stage simulation time: 0 s
# Desc:  Total simulation time: -2 s
# meshunit: m
# meshtype: rectangular
# xbase: 2.5000000000000001e-09
# ybase: 2.5000000000000001e-09
# zbase: 2.5000000000000001e-09
# xnodes: 10
# ynodes: 10
# znodes: 10
# xstepsize: 5.0000000000000001e-09
# ystepsize: 5.0000000000000001e-09
# zstepsize: 5.0000000000000001e-09
# xmin: 0
# ymin: 0
# zmin: 0
# xmax: 4.9999999999999998e-08
# ymax: 4.9999999999999998e-08
# zmax: 4.9999999999999998e-08
# valuedim: 3
# valuelabels: Magnetization_x Magnetization_y Magnetization_z
# valueunits: A/m A/m A/m
#
# End: Header
#
# Begin: Data Text
 256278.96 256278.97 713191.55
 224749.53 263115.51 721289.04
 173447.70 269938.73 732836.26
 109291.68 274859.25 743308.63
 37321.133 277388.29 749441.70
 -37321.151 277388.29 749441.70
 -109291.70 274859.25 743308.63
 -173447.71 269938.72 732836.26
 -224749.54 263115.50 721289.04
 -256278.97 256278.96 713191.55
 263115.50 224749.54 721289.04
 233274.02 233274.03 728811.68
 181494.95 241077.47 740905.69
 114946.55 246633.43 752302.63
 39349.599 249496.29 759080.50
 -39349.616 249496.29 759080.50
 -114946.56 246633.42 752302.63
 -181494.96 241077.46 740905.69
 -233274.03 233274.02 728811.68
 -263115.51 224749.53 721289.04
 269938.72 173447.71 732836.26
 241077.46 181494.96 740905.69
 188931.74 188931.75 754062.06
 120288.99 194236.90 766682.85
 41291.015 196977.81 774270.49
 -41291.029 196977.81 774270.49
 -120289.00 194236.89 766682.85
 -188931.75 188931.74 754062.06
 -241077.47 181494.95 740905.69
 -269938.73 173447.70 732836.26
 274859.25 109291.70 743308.63
 246633.42 114946.56 752302.63
 194236.89 120289.00 766682.85
 124135.06 124135.07 780500.46
 42697.825 126130.12 788839.71
 -42697.834 126130.12 788839.71
 -124135.07 124135.06 780500.46
 -194236.90 120288.99 766682.85
 -246633.43 114946.55 752302.63
 -274859.25 109291.68 743308.63
 277388.29 37321.151 749441.70
 249496.29 39349.617 759080.50
 196977.81 41291.029 774270.49
 126130.12 42697.834 788839.71
 43429.678 43429.681 797638.84
 -43429.681 43429.678 797638.84
 -126130.12 42697.825 788839.71
 -196977.81 41291.014 774270.49
 -249496.29 39349.599 759080.50
 -277388.29 37321.133 749441.70
 277388.29 -37321.132 749441.70
 249496.29 -39349.599 759080.50
 196977.81 -41291.014 774270.49
 126130.12 -42697.825 788839.71
 43429.681 -43429.677 797638.84
 -43429.677 -43429.681 797638.84
 -126130.12 -42697.834 788839.71
 -196977.81 -41291.029 774270.49
 -249496.29 -39349.616 759080.50
 -277388.29 -37321.151 749441.70
 274859.25 -109291.68 743308.63
 246633.43 -114946.55 752302.63
 194236.90 -120288.99 766682.85
 124135.07 -124135.06 780500.46
 42697.834 -126130.12 788839.71
 -42697.825 -126130.12 788839.71
 -124135.06 -124135.07 780500.46
 -194236.89 -120289.00 766682.85
 -246633.42 -114946.56 752302.63
 -274859.25 -109291.70 743308.63
 269938.73 -173447.70 732836.26
 241077.47 -181494.95 740905.69
 188931.75 -188931.74 754062.06
 120289.00 -194236.89 766682.85
 41291.029 -196977.81 774270.49
 -41291.014 -196977.81 774270.49
 -120288.99 -194236.90 766682.85
 -188931.74 -188931.75 754062.06
 -241077.46 -181494.96 740905.69
 -269938.72 -173447.71 732836.26
 263115.51 -224749.53 721289.04
 233274.03 -233274.02 728811.68
 181494.96 -241077.46 740905.69
 114946.56 -246633.42 752302.63
 39349.616 -249496.29 759080.50
 -39349.599 -249496.29 759080.50
 -114946.55 -246633.43 752302.63
 -181494.95 -241077.47 740905.69
 -233274.02 -233274.03 728811.68
 -263115.50 -224749.54 721289.04
 256278.97 -256278.96 713191.55
 224749.54 -263115.50 721289.04
 173447.71 -269938.72 732836.26
 109291.70 -274859.25 743308.63
 37321.151 -277388.29 749441.70
 -37321.133 -277388.29 749441.70
 -109291.68 -274859.25 743308.63
 -173447.70 -269938.73 732836.26
 -224749.53 -263115.51 721289.04
 -256278.96 -256278.97 713191.55
 204414.41 204414.42 745942.02
 182097.94 202459.45 752230.36
 141602.99 202506.46 760880.89
 89382.051 202965.76 768645.40
 30517.217 203247.35 773148.90
 -30517.235 203247.35 773148.89
 -89382.067 202965.76 768645.40
 -141603.01 202506.46 760880.89
 -182097.95 202459.45 752230.36
 -204414.42 204414.41 745942.02
 202459.45 182097.95 752230.36
 182804.53 182804.54 757076.62
 143451.21 184103.69 765197.74
 90982.541 185204.13 772930.53
 31126.708 185781.78 777506.44
 -31126.723 185781.77 777506.44
 -90982.556 185204.13 772930.53
 -143451.23 184103.68 765197.74
 -182804.54 182804.53 757076.62
 -202459.45 182097.94 752230.36
 202506.46 141603.01 760880.89
 184103.68 143451.23 765197.74
 145444.88 145444.89 773105.15
 92661.397 146870.26 780924.45
 31769.392 147579.43 785627.79
 -31769.405 147579.43 785627.79
 -92661.409 146870.25 780924.45
 -145444.89 145444.88 773105.15
 -184103.69 143451.22 765197.74
 -202506.46 141602.99 760880.89
 202965.76 89382.066 768645.40
 185204.13 90982.557 772930.53
 146870.25 92661.408 780924.45
 93829.943 93829.950 788918.17
 32215.898 94402.291 793757.11
 -32215.908 94402.287 793757.11
 -93829.949 93829.943 788918.17
 -146870.25 92661.397 780924.45
 -185204.13 90982.541 772930.53
 -202965.76 89382.051 768645.40
 203247.35 30517.235 773148.89
 185781.77 31126.722 777506.44
 147579.43 31769.407 785627.79
 94402.287 32215.906 793757.11
 32433.871 32433.873 798683.97
 -32433.873 32433.871 798683.97
 -94402.292 32215.898 793757.11
 -147579.43 31769.393 785627.79
 -185781.78 31126.707 777506.44
 -203247.35 30517.218 773148.90
 203247.35 -30517.218 773148.90
 185781.78 -31126.706 777506.44
 147579.43 -31769.394 785627.79
 94402.291 -32215.897 793757.11
 32433.873 -32433.871 798683.97
 -32433.871 -32433.873 798683.97
 -94402.286 -32215.907 793757.11
 -147579.43 -31769.406 785627.78
 -185781.77 -31126.722 777506.44
 -203247.35 -30517.235 773148.89
 202965.76 -89382.051 768645.40
 185204.13 -90982.542 772930.53
 146870.25 -92661.396 780924.45
 93829.950 -93829.944 788918.17
 32215.907 -94402.286 793757.11
 -32215.898 -94402.292 793757.11
 -93829.943 -93829.949 788918.17
 -146870.25 -92661.409 780924.45
 -185204.13 -90982.557 772930.53
 -202965.76 -89382.067 768645.40
 202506.46 -141602.99 760880.89
 184103.69 -143451.21 765197.74
 145444.89 -145444.88 773105.15
 92661.409 -146870.25 780924.45
 31769.405 -147579.43 785627.79
 -31769.392 -147579.43 785627.79
 -92661.396 -146870.26 780924.45
 -145444.88 -145444.89 773105.15
 -184103.68 -143451.23 765197.74
 -202506.46 -141603.01 760880.89
 202459.45 -182097.94 752230.36
 182804.54 -182804.53 757076.62
 143451.23 -184103.68 765197.74
 90982.556 -185204.13 772930.53
 31126.723 -185781.77 777506.44
 -31126.708 -185781.78 777506.44
 -90982.541 -185204.13 772930.53
 -143451.21 -184103.69 765197.74
 -182804.53 -182804.54 757076.62
 -202459.45 -182097.95 752230.36
 204414.42 -204414.41 745942.02
 182097.95 -202459.45 752230.36
 141603.01 -202506.46 760880.89
 89382.067 -202965.76 768645.40
 30517.235 -203247.35 773148.89
 -30517.217 -203247.35 773148.90
 -89382.051 -202965.76 768645.40
 -141602.99 -202506.46 760880.89
 -182097.94 -202459.45 752230.36
 -204414.41 -204414.42 745942.02
 141746.52 141746.53 774477.79
 126255.22 135623.94 778245.31
 98233.972 131183.13 783033.25
 61969.921 128428.85 787188.52
 21140.778 127085.01 789558.40
 -21140.794 127085.01 789558.40
 -61969.936 128428.85 787188.51
 -98233.984 131183.12 783033.25
 -126255.23 135623.93 778245.31
 -141746.53 141746.52 774477.79
 135623.93 126255.23 778245.31
 122668.74 122668.75 780963.99
 96468.327 119533.60 785115.01
 61186.260 117452.66 788962.05
 20918.704 116413.58 791208.12
 -20918.718 116413.58 791208.12
 -61186.272 117452.66 788962.05
 -96468.338 119533.59 785115.01
 -122668.75 122668.74 780963.99
 -135623.94 126255.22 778245.31
 131183.12 98233.984 783033.25
 119533.59 96468.339 785115.01
 94712.568 94712.578 788707.21
 60363.893 93424.230 792229.84
 20683.372 92745.623 794336.48
 -20683.383 92745.618 794336.48
 -60363.902 93424.226 792229.84
 -94712.578 94712.570 788707.21
 -119533.60 96468.326 785115.01
 -131183.13 98233.972 783033.25
 128428.85 61969.936 787188.51
 117452.65 61186.271 788962.05
 93424.227 60363.904 792229.84
 59706.903 59706.911 795531.38
 20486.145 59341.092 797533.04
 -20486.152 59341.092 797533.04
 -59706.911 59706.903 795531.38
 -93424.230 60363.893 792229.84
 -117452.66 61186.259 788962.05
 -128428.85 61969.921 787188.52
 127085.01 21140.793 789558.40
 116413.58 20918.720 791208.12
 92745.617 20683.381 794336.48
 59341.092 20486.153 797533.04
 20372.467 20372.469 799481.03
 -20372.470 20372.467 799481.03
 -59341.091 20486.146 797533.04
 -92745.624 20683.370 794336.48
 -116413.58 20918.705 791208.12
 -127085.01 21140.778 789558.40
 127085.01 -21140.777 789558.40
 116413.58 -20918.706 791208.12
 92745.623 -20683.369 794336.48
 59341.092 -20486.147 797533.04
 20372.470 -20372.466 799481.03
 -20372.466 -20372.470 799481.03
 -59341.093 -20486.152 797533.04
 -92745.617 -20683.381 794336.48
 -116413.58 -20918.720 791208.12
 -127085.01 -21140.793 789558.40
 128428.85 -61969.922 787188.52
 117452.66 -61186.258 788962.05
 93424.230 -60363.894 792229.84
 59706.911 -59706.902 795531.38
 20486.152 -59341.093 797533.04
 -20486.146 -59341.091 797533.04
 -59706.902 -59706.911 795531.38
 -93424.227 -60363.903 792229.84
 -117452.65 -61186.272 788962.05
 -128428.85 -61969.936 787188.51
 131183.13 -98233.972 783033.25
 119533.60 -96468.327 785115.01
 94712.578 -94712.568 788707.21
 60363.903 -93424.227 792229.84
 20683.382 -92745.617 794336.48
 -20683.371 -92745.624 794336.48
 -60363.893 -93424.229 792229.84
 -94712.568 -94712.579 788707.21
 -119533.59 -96468.338 785115.01
 -131183.12 -98233.984 783033.25
 135623.94 -126255.22 778245.31
 122668.75 -122668.74 780963.99
 96468.339 -119533.59 785115.01
 61186.272 -117452.65 788962.05
 20918.718 -116413.58 791208.12
 -20918.704 -116413.58 791208.12
 -61186.260 -117452.66 788962.05
 -96468.327 -119533.60 785115.01
 -122668.74 -122668.75 780963.99
 -135623.93 -126255.23 778245.31
 141746.53 -141746.52 774477.79
 126255.23 -135623.93 778245.31
 98233.984 -131183.12 783033.25
 61969.936 -128428.85 787188.51
 21140.794 -127085.01 789558.40
 -21140.778 -127085.01 789558.40
 -61969.921 -128428.85 787188.52
 -98233.972 -131183.13 783033.25
 -126255.22 -135623.94 778245.31
 -141746.52 -141746.53 774477.79
 81265.024 81265.031 791701.96
 72033.696 75821.233 793134.47
 55865.815 71256.594 794859.43
 35171.364 68231.814 796308.61
 11985.753 66732.620 797121.76
 -11985.768 66732.620 797121.76
 -35171.378 68231.810 796308.60
 -55865.827 71256.588 794859.43
 -72033.705 75821.226 793134.47
 -81265.031 81265.024 791701.96
 75821.226 72033.705 793134.47
 68338.482 68338.490 794140.86
 53650.097 64751.415 795568.30
 33992.786 62253.307 796849.43
 11614.276 60995.437 797586.78
 -11614.289 60995.433 797586.78
 -33992.797 62253.305 796849.43
 -53650.107 64751.408 795568.30
 -68338.490 68338.481 794140.86
 -75821.232 72033.696 793134.47
 71256.589 55865.827 794859.43
 64751.407 53650.106 795568.30
 51286.460 51286.468 796705.34
 32685.300 49537.578 797795.52
 11197.685 48630.668 798442.03
 -11197.694 48630.669 798442.03
 -32685.309 49537.571 797795.52
 -51286.467 51286.459 796705.34
 -64751.414 53650.097 795568.30
 -71256.594 55865.815 794859.43
 68231.809 35171.377 796308.61
 62253.306 33992.799 796849.43
 49537.570 32685.308 797795.53
 31678.126 31678.131 798744.64
 10870.989 31142.708 799319.68
 -10870.996 31142.705 799319.68
 -31678.130 31678.125 798744.64
 -49537.578 32685.299 797795.52
 -62253.308 33992.786 796849.43
 -68231.813 35171.364 796308.61
 66732.620 11985.769 797121.76
 60995.433 11614.286 797586.78
 48630.669 11197.697 798442.03
 31142.705 10870.995 799319.68
 10695.067 10695.069 799857.01
 -10695.068 10695.066 799857.01
 -31142.709 10870.989 799319.68
 -48630.667 11197.686 798442.03
 -60995.437 11614.274 797586.78
 -66732.620 11985.754 797121.76
 66732.620 -11985.754 797121.76
 60995.437 -11614.274 797586.78
 48630.668 -11197.687 798442.03
 31142.709 -10870.988 799319.68
 10695.068 -10695.068 799857.01
 -10695.067 -10695.067 799857.01
 -31142.704 -10870.996 799319.68
 -48630.670 -11197.696 798442.03
 -60995.432 -11614.287 797586.78
 -66732.620 -11985.768 797121.76
 68231.813 -35171.364 796308.61
 62253.308 -33992.787 796849.43
 49537.577 -32685.298 797795.53
 31678.130 -31678.126 798744.64
 10870.996 -31142.704 799319.68
 -10870.989 -31142.710 799319.68
 -31678.126 -31678.129 798744.64
 -49537.570 -32685.309 797795.53
 -62253.306 -33992.798 796849.43
 -68231.809 -35171.377 796308.61
 71256.594 -55865.816 794859.43
 64751.414 -53650.096 795568.30
 51286.468 -51286.460 796705.34
 32685.309 -49537.570 797795.52
 11197.695 -48630.670 798442.03
 -11197.685 -48630.667 798442.03
 -32685.299 -49537.579 797795.52
 -51286.460 -51286.467 796705.34
 -64751.407 -53650.107 795568.30
 -71256.589 -55865.827 794859.43
 75821.232 -72033.696 793134.47
 68338.490 -68338.482 794140.86
 53650.106 -64751.407 795568.30
 33992.798 -62253.305 796849.43
 11614.288 -60995.432 797586.78
 -11614.276 -60995.437 797586.78
 -33992.786 -62253.307 796849.43
 -53650.097 -64751.415 795568.30
 -68338.482 -68338.490 794140.86
 -75821.226 -72033.705 793134.47
 81265.031 -81265.024 791701.96
 72033.705 -75821.226 793134.47
 55865.827 -71256.589 794859.43
 35171.377 -68231.809 796308.61
 11985.768 -66732.620 797121.76
 -11985.753 -66732.620 797121.76
 -35171.364 -68231.814 796308.61
 -55865.815 -71256.593 794859.43
 -72033.696 -75821.233 793134.47
 -81265.024 -81265.031 791701.96
 26244.682 26244.689 799138.56
 23181.512 24166.291 799298.82
 17930.337 22343.505 799486.88
 11270.814 21111.634 799641.96
 3838.1327 20498.148 799728.14
 -3838.1461 20498.146 799728.14
 -11270.827 21111.631 799641.96
 -17930.348 22343.500 799486.88
 -23181.520 24166.285 799298.82
 -26244.689 26244.682 799138.56
 24166.285 23181.521 799298.82
 21720.400 21720.407 799410.06
 17021.345 20256.107 799562.36
 10774.942 19221.517 799696.46
 3679.9972 18699.020 799772.97
 -3680.0091 18699.019 799772.97
 -10774.953 19221.513 799696.46
 -17021.355 20256.101 799562.36
 -21720.408 21720.400 799410.06
 -24166.291 23181.512 799298.82
 22343.500 17930.347 799486.88
 20256.101 17021.356 799562.36
 16029.284 16029.291 799678.76
 10213.803 15290.712 799788.64
 3499.0935 14908.311 799853.42
 -3499.1027 14908.309 799853.42
 -10213.812 15290.707 799788.64
 -16029.292 16029.284 799678.76
 -20256.107 17021.346 799562.36
 -22343.505 17930.336 799486.88
 21111.631 11270.828 799641.96
 19221.513 10774.951 799696.46
 15290.708 10213.813 799788.64
 9781.6461 9781.6512 799880.39
 3357.6989 9553.2778 799935.91
 -3357.7045 9553.2751 799935.91
 -9781.6522 9781.6468 799880.39
 -15290.712 10213.804 799788.64
 -19221.517 10774.941 799696.46
 -21111.634 11270.815 799641.96
 20498.146 3838.1451 799728.14
 18699.020 3680.0112 799772.97
 14908.309 3499.1008 799853.42
 9553.2759 3357.7057 799935.91
 3282.1948 3282.1959 799986.53
 -3282.1971 3282.1957 799986.53
 -9553.2768 3357.6984 799935.91
 -14908.312 3499.0928 799853.42
 -18699.020 3679.9987 799772.97
 -20498.148 3838.1319 799728.14
 20498.148 -3838.1318 799728.14
 18699.020 -3679.9993 799772.97
 14908.311 -3499.0917 799853.42
 9553.2775 -3357.7000 799935.91
 3282.1965 -3282.1937 799986.53
 -3282.1942 -3282.1979 799986.53
 -9553.2766 -3357.7040 799935.91
 -14908.308 -3499.1020 799853.42
 -18699.020 -3680.0106 799772.97
 -20498.146 -3838.1454 799728.14
 21111.634 -11270.815 799641.96
 19221.517 -10774.941 799696.46
 15290.712 -10213.804 799788.64
 9781.6514 -9781.6454 799880.39
 3357.7052 -9553.2767 799935.91
 -3357.6996 -9553.2761 799935.91
 -9781.6454 -9781.6528 799880.39
 -15290.708 -10213.812 799788.64
 -19221.512 -10774.952 799696.46
 -21111.631 -11270.828 799641.96
 22343.505 -17930.336 799486.88
 20256.107 -17021.346 799562.36
 16029.292 -16029.284 799678.76
 10213.812 -15290.708 799788.64
 3499.1018 -14908.308 799853.42
 -3499.0926 -14908.312 799853.42
 -10213.804 -15290.711 799788.64
 -16029.284 -16029.292 799678.76
 -20256.101 -17021.355 799562.36
 -22343.500 -17930.347 799486.88
 24166.291 -23181.512 799298.82
 21720.408 -21720.400 799410.06
 17021.355 -20256.101 799562.36
 10774.953 -19221.513 799696.46
 3680.0099 -18699.020 799772.97
 -3679.9980 -18699.019 799772.97
 -10774.942 -19221.518 799696.46
 -17021.346 -20256.106 799562.36
 -21720.400 -21720.408 799410.06
 -24166.285 -23181.520 799298.82
 26244.689 -26244.682 799138.56
 23181.521 -24166.285 799298.82
 17930.347 -22343.500 799486.88
 11270.827 -21111.631 799641.96
 3838.1458 -20498.146 799728.14
 -3838.1324 -20498.148 799728.14
 -11270.815 -21111.633 799641.96
 -17930.337 -22343.505 799486.88
 -23181.512 -24166.291 799298.82
 -26244.682 -26244.689 799138.56
 -26244.689 -26244.682 799138.56
 -23181.520 -24166.285 799298.82
 -17930.348 -22343.500 799486.88
 -11270.827 -21111.631 799641.96
 -3838.1462 -20498.146 799728.14
 3838.1327 -20498.148 799728.14
 11270.814 -21111.634 799641.96
 17930.337 -22343.505 799486.88
 23181.511 -24166.291 799298.82
 26244.682 -26244.689 799138.56
 -24166.291 -23181.512 799298.82
 -21720.408 -21720.400 799410.06
 -17021.354 -20256.101 799562.36
 -10774.954 -19221.512 799696.46
 -3680.0089 -18699.020 799772.97
 3679.9971 -18699.020 799772.97
 10774.943 -19221.518 799696.46
 17021.345 -20256.107 799562.36
 21720.401 -21720.408 799410.06
 24166.285 -23181.521 799298.82
 -22343.505 -17930.336 799486.88
 -20256.106 -17021.346 799562.36
 -16029.293 -16029.284 799678.76
 -10213.811 -15290.708 799788.64
 -3499.1030 -14908.308 799853.42
 3499.0937 -14908.312 799853.42
 10213.803 -15290.711 799788.64
 16029.285 -16029.292 799678.76
 20256.100 -17021.355 799562.36
 22343.500 -17930.347 799486.88
 -21111.634 -11270.815 799641.96
 -19221.518 -10774.941 799696.46
 -15290.711 -10213.804 799788.64
 -9781.6527 -9781.6457 799880.39
 -3357.7042 -9553.2768 799935.91
 3357.6988 -9553.2756 799935.91
 9781.6464 -9781.6535 799880.39
 15290.707 -10213.811 799788.64
 19221.513 -10774.953 799696.46
 21111.631 -11270.827 799641.96
 -20498.148 -3838.1321 799728.14
 -18699.020 -3679.9985 799772.97
 -14908.312 -3499.0927 799853.42
 -9553.2765 -3357.6993 799935.91
 -3282.1973 -3282.1938 799986.53
 3282.1948 -3282.1985 799986.53
 9553.2759 -3357.7029 799935.91
 14908.309 -3499.1032 799853.42
 18699.019 -3680.0096 799772.97
 20498.146 -3838.1457 799728.14
 -20498.146 3838.1455 799728.14
 -18699.020 3680.0102 799772.97
 -14908.308 3499.1021 799853.42
 -9553.2766 3357.7046 799935.91
 -3282.1941 3282.1964 799986.53
 3282.1966 3282.1959 799986.53
 9553.2772 3357.6975 799935.91
 14908.311 3499.0939 799853.42
 18699.020 3679.9977 799772.97
 20498.147 3838.1323 799728.14
 -21111.631 11270.827 799641.96
 -19221.513 10774.952 799696.46
 -15290.708 10213.812 799788.64
 -9781.6456 9781.6521 799880.39
 -3357.6996 9553.2773 799935.91
 3357.7050 9553.2751 799935.91
 9781.6519 9781.6473 799880.39
 15290.712 10213.803 799788.64
 19221.517 10774.942 799696.46
 21111.634 11270.815 799641.96
 -22343.500 17930.347 799486.88
 -20256.101 17021.356 799562.36
 -16029.284 16029.292 799678.76
 -10213.804 15290.712 799788.64
 -3499.0927 14908.311 799853.42
 3499.1020 14908.309 799853.42
 10213.812 15290.707 799788.64
 16029.292 16029.285 799678.76
 20256.106 17021.345 799562.36
 22343.505 17930.337 799486.88
 -24166.285 23181.521 799298.82
 -21720.401 21720.407 799410.06
 -17021.345 20256.107 799562.36
 -10774.942 19221.517 799696.46
 -3679.9979 18699.020 799772.97
 3680.0097 18699.019 799772.97
 10774.953 19221.513 799696.46
 17021.355 20256.100 799562.36
 21720.408 21720.400 799410.06
 24166.291 23181.512 799298.82
 -26244.682 26244.689 799138.56
 -23181.512 24166.292 799298.82
 -17930.337 22343.505 799486.88
 -11270.815 21111.634 799641.96
 -3838.1324 20498.147 799728.14
 3838.1458 20498.146 799728.14
 11270.827 21111.631 799641.96
 17930.348 22343.500 799486.88
 23181.520 24166.285 799298.82
 26244.689 26244.682 799138.56
 -81265.031 -81265.024 791701.96
 -72033.705 -75821.226 793134.47
 -55865.826 -71256.589 794859.43
 -35171.378 -68231.809 796308.60
 -11985.767 -66732.620 797121.76
 11985.753 -66732.620 797121.76
 35171.365 -68231.813 796308.61
 55865.815 -71256.594 794859.43
 72033.696 -75821.233 793134.47
 81265.024 -81265.031 791701.96
 -75821.233 -72033.696 793134.47
 -68338.489 -68338.482 794140.86
 -53650.108 -64751.407 795568.30
 -33992.797 -62253.305 796849.43
 -11614.289 -60995.433 797586.78
 11614.276 -60995.437 797586.78
 33992.785 -62253.307 796849.43
 53650.098 -64751.415 795568.30
 68338.480 -68338.490 794140.86
 75821.227 -72033.705 793134.47
 -71256.593 -55865.815 794859.43
 -64751.416 -53650.096 795568.30
 -51286.466 -51286.460 796705.34
 -32685.310 -49537.571 797795.52
 -11197.694 -48630.669 798442.03
 11197.684 -48630.667 798442.03
 32685.301 -49537.579 797795.52
 51286.458 -51286.466 796705.34
 64751.409 -53650.107 795568.30
 71256.588 -55865.827 794859.43
 -68231.814 -35171.364 796308.61
 -62253.307 -33992.786 796849.43
 -49537.579 -32685.300 797795.52
 -31678.129 -31678.125 798744.64
 -10870.997 -31142.704 799319.68
 10870.990 -31142.711 799319.68
 31678.125 -31678.128 798744.64
 49537.572 -32685.311 797795.52
 62253.304 -33992.797 796849.43
 68231.810 -35171.378 796308.60
 -66732.620 -11985.753 797121.76
 -60995.437 -11614.276 797586.78
 -48630.667 -11197.684 798442.03
 -31142.710 -10870.990 799319.68
 -10695.068 -10695.067 799857.01
 10695.066 -10695.066 799857.01
 31142.705 -10870.999 799319.68
 48630.669 -11197.692 798442.03
 60995.433 -11614.289 797586.78
 66732.620 -11985.767 797121.76
 -66732.620 11985.768 797121.76
 -60995.433 11614.289 797586.78
 -48630.669 11197.694 798442.03
 -31142.704 10870.997 799319.68
 -10695.067 10695.068 799857.01
 10695.068 10695.065 799857.01
 31142.709 10870.992 799319.68
 48630.668 11197.683 798442.03
 60995.437 11614.277 797586.78
 66732.620 11985.753 797121.76
 -68231.810 35171.377 796308.60
 -62253.305 33992.798 796849.43
 -49537.571 32685.310 797795.52
 -31678.125 31678.129 798744.64
 -10870.989 31142.709 799319.68
 10870.996 31142.706 799319.68
 31678.129 31678.124 798744.64
 49537.579 32685.301 797795.52
 62253.307 33992.785 796849.43
 68231.814 35171.365 796308.61
 -71256.588 55865.827 794859.43
 -64751.409 53650.106 795568.30
 -51286.459 51286.467 796705.34
 -32685.300 49537.578 797795.52
 -11197.685 48630.668 798442.03
 11197.694 48630.669 798442.03
 32685.310 49537.572 797795.52
 51286.466 51286.459 796705.34
 64751.416 53650.097 795568.30
 71256.593 55865.815 794859.43
 -75821.227 72033.705 793134.47
 -68338.481 68338.491 794140.86
 -53650.098 64751.414 795568.30
 -33992.785 62253.308 796849.43
 -11614.276 60995.437 797586.78
 11614.288 60995.433 797586.78
 33992.797 62253.305 796849.43
 53650.108 64751.408 795568.30
 68338.489 68338.481 794140.86
 75821.233 72033.696 793134.47
 -81265.024 81265.031 791701.96
 -72033.696 75821.232 793134.47
 -55865.815 71256.594 794859.43
 -35171.365 68231.813 796308.61
 -11985.753 66732.620 797121.76
 11985.768 66732.620 797121.76
 35171.378 68231.809 796308.60
 55865.826 71256.589 794859.43
 72033.705 75821.226 793134.47
 81265.031 81265.024 791701.96
 -141746.53 -141746.52 774477.79
 -126255.23 -135623.93 778245.31
 -98233.985 -131183.12 783033.25
 -61969.935 -128428.85 787188.51
 -21140.794 -127085.01 789558.40
 21140.778 -127085.01 789558.40
 61969.921 -128428.85 787188.52
 98233.973 -131183.13 783033.25
 126255.22 -135623.94 778245.31
 141746.52 -141746.53 774477.79
 -135623.94 -126255.22 778245.31
 -122668.75 -122668.74 780963.99
 -96468.337 -119533.59 785115.01
 -61186.273 -117452.65 788962.05
 -20918.718 -116413.58 791208.12
 20918.703 -116413.58 791208.12
 61186.261 -117452.66 788962.05
 96468.325 -119533.60 785115.01
 122668.75 -122668.75 780963.99
 135623.93 -126255.23 778245.31
 -131183.13 -98233.972 783033.25
 -119533.60 -96468.327 785115.01
 -94712.580 -94712.569 788707.21
 -60363.901 -93424.226 792229.84
 -20683.383 -92745.617 794336.48
 20683.372 -92745.624 794336.48
 60363.891 -93424.228 792229.84
 94712.571 -94712.580 788707.21
 119533.59 -96468.338 785115.01
 131183.12 -98233.984 783033.25
 -128428.85 -61969.921 787188.52
 -117452.66 -61186.260 788962.05
 -93424.228 -60363.892 792229.84
 -59706.912 -59706.904 795531.38
 -20486.151 -59341.092 797533.04
 20486.145 -59341.090 797533.04
 59706.904 -59706.913 795531.38
 93424.225 -60363.900 792229.84
 117452.66 -61186.274 788962.05
 128428.85 -61969.935 787188.51
 -127085.01 -21140.778 789558.40
 -116413.58 -20918.703 791208.12
 -92745.624 -20683.373 794336.48
 -59341.091 -20486.144 797533.04
 -20372.471 -20372.467 799481.03
 20372.467 -20372.471 799481.03
 59341.092 -20486.149 797533.04
 92745.618 -20683.385 794336.48
 116413.58 -20918.717 791208.12
 127085.01 -21140.794 789558.40
 -127085.01 21140.794 789558.40
 -116413.58 20918.718 791208.12
 -92745.617 20683.384 794336.48
 -59341.092 20486.151 797533.04
 -20372.466 20372.471 799481.03
 20372.470 20372.468 799481.03
 59341.091 20486.143 797533.04
 92745.624 20683.374 794336.48
 116413.58 20918.703 791208.12
 127085.01 21140.779 789558.40
 -128428.85 61969.936 787188.51
 -117452.66 61186.273 788962.05
 -93424.226 60363.902 792229.84
 -59706.903 59706.912 795531.38
 -20486.145 59341.091 797533.04
 20486.152 59341.091 797533.04
 59706.912 59706.904 795531.38
 93424.229 60363.891 792229.84
 117452.66 61186.261 788962.05
 128428.85 61969.921 787188.52
 -131183.12 98233.984 783033.25
 -119533.59 96468.339 785115.01
 -94712.570 94712.578 788707.21
 -60363.892 93424.229 792229.84
 -20683.372 92745.624 794336.48
 20683.383 92745.618 794336.48
 60363.901 93424.225 792229.84
 94712.580 94712.570 788707.21
 119533.60 96468.326 785115.01
 131183.13 98233.972 783033.25
 -135623.93 126255.23 778245.31
 -122668.75 122668.75 780963.99
 -96468.325 119533.60 785115.01
 -61186.261 117452.66 788962.05
 -20918.704 116413.58 791208.12
 20918.718 116413.58 791208.12
 61186.273 117452.65 788962.05
 96468.337 119533.59 785115.01
 122668.75 122668.74 780963.99
 135623.94 126255.22 778245.31
 -141746.52 141746.53 774477.79
 -126255.22 135623.94 778245.31
 -98233.973 131183.13 783033.25
 -61969.921 128428.85 787188.52
 -21140.778 127085.01 789558.40
 21140.794 127085.01 789558.40
 61969.935 128428.85 787188.51
 98233.985 131183.12 783033.25
 126255.23 135623.93 778245.31
 141746.53 141746.52 774477.79
 -204414.42 -204414.41 745942.02
 -182097.95 -202459.45 752230.36
 -141603.01 -202506.46 760880.89
 -89382.067 -202965.76 768645.40
 -30517.235 -203247.35 773148.89
 30517.217 -203247.35 773148.90
 89382.051 -202965.76 768645.40
 141602.99 -202506.46 760880.89
 182097.94 -202459.45 752230.36
 204414.41 -204414.42 745942.02
 -202459.45 -182097.94 752230.36
 -182804.54 -182804.53 757076.62
 -143451.23 -184103.68 765197.74
 -90982.556 -185204.13 772930.53
 -31126.724 -185781.77 777506.44
 31126.708 -185781.78 777506.44
 90982.540 -185204.13 772930.53
 143451.22 -184103.69 765197.74
 182804.53 -182804.54 757076.62
 202459.45 -182097.95 752230.36
 -202506.46 -141602.99 760880.89
 -184103.69 -143451.22 765197.74
 -145444.89 -145444.88 773105.15
 -92661.410 -146870.25 780924.45
 -31769.405 -147579.43 785627.79
 31769.392 -147579.43 785627.79
 92661.398 -146870.26 780924.45
 145444.88 -145444.89 773105.15
 184103.68 -143451.23 765197.74
 202506.45 -141603.01 760880.89
 -202965.76 -89382.051 768645.40
 -185204.13 -90982.541 772930.53
 -146870.26 -92661.397 780924.45
 -93829.949 -93829.942 788918.17
 -32215.908 -94402.287 793757.11
 32215.899 -94402.292 793757.11
 93829.942 -93829.948 788918.17
 146870.25 -92661.410 780924.45
 185204.13 -90982.555 772930.53
 202965.76 -89382.067 768645.40
 -203247.35 -30517.217 773148.90
 -185781.78 -31126.708 777506.44
 -147579.43 -31769.391 785627.79
 -94402.292 -32215.899 793757.11
 -32433.873 -32433.870 798683.97
 32433.870 -32433.872 798683.97
 94402.287 -32215.909 793757.11
 147579.43 -31769.403 785627.79
 185781.78 -31126.725 777506.44
 203247.35 -30517.234 773148.89
 -203247.35 30517.234 773148.89
 -185781.77 31126.724 777506.44
 -147579.43 31769.404 785627.79
 -94402.286 32215.908 793757.11
 -32433.871 32433.872 798683.97
 32433.873 32433.870 798683.97
 94402.292 32215.900 793757.11
 147579.43 31769.391 785627.79
 185781.78 31126.709 777506.44
 203247.35 30517.217 773148.90
 -202965.76 89382.067 768645.40
 -185204.13 90982.556 772930.53
 -146870.25 92661.410 780924.45
 -93829.943 93829.949 788918.17
 -32215.898 94402.292 793757.11
 32215.908 94402.287 793757.11
 93829.949 93829.942 788918.17
 146870.26 92661.398 780924.45
 185204.13 90982.540 772930.53
 202965.76 89382.051 768645.40
 -202506.45 141603.01 760880.89
 -184103.68 143451.23 765197.74
 -145444.88 145444.89 773105.15
 -92661.397 146870.26 780924.45
 -31769.392 147579.43 785627.79
 31769.405 147579.43 785627.79
 92661.410 146870.25 780924.45
 145444.89 145444.88 773105.15
 184103.69 143451.22 765197.74
 202506.46 141602.99 760880.89
 -202459.45 182097.95 752230.36
 -182804.53 182804.54 757076.62
 -143451.22 184103.69 765197.74
 -90982.541 185204.13 772930.53
 -31126.708 185781.78 777506.44
 31126.724 185781.77 777506.44
 90982.555 185204.13 772930.53
 143451.23 184103.68 765197.74
 182804.54 182804.53 757076.62
 202459.45 182097.94 752230.36
 -204414.41 204414.42 745942.02
 -182097.94 202459.45 752230.36
 -141602.99 202506.46 760880.89
 -89382.051 202965.76 768645.40
 -30517.217 203247.35 773148.90
 30517.234 203247.35 773148.89
 89382.067 202965.76 768645.40
 141603.01 202506.46 760880.89
 182097.95 202459.45 752230.36
 204414.42 204414.41 745942.02
 -256278.97 -256278.96 713191.55
 -224749.54 -263115.50 721289.04
 -173447.71 -269938.72 732836.26
 -109291.70 -274859.25 743308.63
 -37321.151 -277388.29 749441.70
 37321.133 -277388.29 749441.70
 109291.68 -274859.25 743308.63
 173447.70 -269938.73 732836.26