# OOMMF OVF 2.0
#
# Segment count: 1
#
# Begin: Segment
# Begin: Header
#
# Title: Oxs_MinDriver::Magnetization
# Desc: Oxs vector field output
# Desc:  MIF source file: /home/ryan/Git/joommf/tools/omfvis/cube_example.mif
# Desc:  Iteration: 3176, State id: 6604
# Desc:  Stage: 11, Stage iteration: 93
# Desc:  Stage simulation time: 0 s
# Desc:  Total simulation time: -2 s
# meshunit: m
# meshtype: rectangular
# xbase: 2.5000000000000001e-09
# ybase: 2.5000000000000001e-09
# zbase: 2.5000000000000001e-09
# xnodes: 10
# ynodes: 10
# znodes: 10
# xstepsize: 5.0000000000000001e-09
# ystepsize: 5.0000000000000001e-09
# zstepsize: 5.0000000000000001e-09
# xmin: 0
# ymin: 0
# zmin: 0
# xmax: 4.9999999999999998e-08
# ymax: 4.9999999999999998e-08
# zmax: 4.9999999999999998e-08
# valuedim: 3
# valuelabels: Magnetization_x Magnetization_y Magnetization_z
# valueunits: A/m A/m A/m
#
# End: Header
#
# Begin: Data Text
 606822.53 -142640.46 501418.11
 646964.96 -109982.90 457537.00
 677996.81 -43771.590 422379.42
 686615.49 48406.257 407695.96
 666594.43 159105.92 412719.24
 613022.31 279567.88 431329.86
 523066.05 397849.05 456199.56
 399931.01 499670.52 479983.91
 259889.58 571484.36 495845.78
 142640.46 606822.53 501418.11
 571484.36 -259889.58 495845.78
 615947.56 -214836.55 463091.63
 653816.20 -130201.26 442235.25
 667837.83 -11769.221 440288.68
 647229.05 132616.77 451117.89
 585047.00 287758.36 463589.41
 482550.06 431606.45 469958.84
 351598.10 544456.89 468983.44
 214836.55 615947.56 463091.63
 109982.90 646964.96 457537.00
 499670.52 -399931.01 479983.91
 544456.89 -351598.10 468983.44
 587517.05 -255083.99 479328.57
 607281.72 -109011.23 509240.08
 584864.82 81177.631 539762.30
 509306.44 287346.82 545929.26
 390616.75 465281.61 520510.88
 255083.99 587517.05 479328.57
 130201.26 653816.20 442235.24
 43771.590 677996.81 422379.42
 397849.05 -523066.05 456199.56
 431606.45 -482550.07 469958.84
 465281.61 -390616.75 520510.88
 478038.71 -231218.05 598345.39
 445690.99 1430.8612 664347.42
 355903.05 264168.72 665993.92
 231218.05 478038.71 598345.39
 109011.23 607281.72 509240.08
 11769.221 667837.83 440288.68
 -48406.258 686615.49 407695.96
 279567.88 -613022.31 431329.85
 287758.36 -585047.00 463589.41
 287346.82 -509306.44 545929.26
 264168.72 -355903.05 665993.92
 201885.77 -102329.93 767313.97
 102329.93 201885.77 767313.97
 -1430.8616 445690.99 664347.42
 -81177.631 584864.82 539762.30
 -132616.77 647229.05 451117.89
 -159105.92 666594.43 412719.24
 159105.92 -666594.43 412719.24
 132616.77 -647229.05 451117.89
 81177.631 -584864.82 539762.30
 1430.8614 -445690.99 664347.42
 -102329.93 -201885.77 767313.97
 -201885.77 102329.93 767313.97
 -264168.72 355903.05 665993.92
 -287346.82 509306.44 545929.26
 -287758.36 585047.00 463589.41
 -279567.88 613022.31 431329.85
 48406.258 -686615.49 407695.96
 -11769.221 -667837.83 440288.68
 -109011.23 -607281.72 509240.08
 -231218.05 -478038.71 598345.39
 -355903.05 -264168.72 665993.92
 -445690.99 -1430.8609 664347.42
 -478038.71 231218.05 598345.39
 -465281.61 390616.75 520510.88
 -431606.45 482550.06 469958.84
 -397849.05 523066.05 456199.56
 -43771.590 -677996.81 422379.42
 -130201.26 -653816.20 442235.24
 -255083.99 -587517.05 479328.57
 -390616.75 -465281.61 520510.88
 -509306.44 -287346.82 545929.26
 -584864.82 -81177.632 539762.30
 -607281.72 109011.23 509240.08
 -587517.05 255083.99 479328.57
 -544456.89 351598.10 468983.44
 -499670.52 399931.01 479983.91
 -109982.90 -646964.96 457537.00
 -214836.55 -615947.56 463091.63
 -351598.10 -544456.89 468983.44
 -482550.07 -431606.45 469958.84
 -585047.00 -287758.36 463589.41
 -647229.05 -132616.77 451117.89
 -667837.83 11769.220 440288.68
 -653816.20 130201.26 442235.24
 -615947.56 214836.55 463091.63
 -571484.36 259889.58 495845.78
 -142640.46 -606822.53 501418.11
 -259889.58 -571484.36 495845.78
 -399931.01 -499670.52 479983.91
 -523066.05 -397849.05 456199.56
 -613022.31 -279567.88 431329.85
 -666594.43 -159105.92 412719.24
 -686615.49 -48406.257 407695.96
 -677996.81 43771.590 422379.42
 -646964.96 109982.90 457537.00
 -606822.53 142640.46 501418.11
 566911.91 -179709.52 535084.45
 612660.09 -146573.47 493116.45
 651927.53 -81970.372 456367.56
 669069.53 6345.9428 438526.74
 658412.99 111860.89 440431.02
 615615.36 227740.33 457331.46
 537151.64 344250.85 482658.74
 424406.10 448318.05 508812.72
 291914.02 525658.97 527701.48
 179709.52 566911.91 535084.45
 525658.97 -291914.02 527701.48
 574721.79 -244093.55 500113.19
 619099.86 -161017.42 480404.78
 640177.11 -47898.360 477366.75
 628800.11 89038.852 486500.26
 578927.52 237774.73 498303.23
 490154.31 379791.63 505477.07
 371480.28 496246.24 505709.47
 244093.55 574721.79 500113.18
 146573.47 612660.09 493116.45
 448318.05 -424406.10 508812.72
 496246.24 -371480.28 505709.47
 542572.36 -275419.15 519383.79
 566330.50 -135627.33 548520.73
 553050.96 43004.254 576441.91
 494177.31 238079.40 582328.93
 395093.96 413602.24 559315.60
 275419.15 542572.36 519383.79
 161017.42 619099.86 480404.78
 81970.372 651927.53 456367.56
 344250.85 -537151.64 482658.74
 379791.63 -490154.31 505477.07
 413602.24 -395093.97 559315.60
 427334.97 -239894.65 632325.38
 404841.39 -23588.403 689599.19
 338227.28 218881.83 691153.42
 239894.65 427334.96 632325.38
 135627.33 566330.51 548520.73
 47898.360 640177.11 477366.75
 -6345.9423 669069.53 438526.74
 227740.33 -615615.36 457331.46
 237774.73 -578927.52 498303.23
 238079.40 -494177.31 582328.94
 218881.83 -338227.28 691153.42
 172606.05 -101719.91 774506.43
 101719.91 172606.05 774506.43
 23588.404 404841.39 689599.18
 -43004.255 553050.96 576441.91
 -89038.851 628800.11 486500.26
 -111860.89 658412.99 440431.02
 111860.89 -658412.98 440431.02
 89038.851 -628800.11 486500.26
 43004.255 -553050.96 576441.91
 -23588.404 -404841.39 689599.19
 -101719.91 -172606.05 774506.43
 -172606.05 101719.91 774506.43
 -218881.83 338227.28 691153.42
 -238079.40 494177.31 582328.93
 -237774.73 578927.52 498303.23
 -227740.33 615615.36 457331.46
 6345.9426 -669069.53 438526.74
 -47898.360 -640177.11 477366.75
 -135627.33 -566330.50 548520.73
 -239894.65 -427334.97 632325.38
 -338227.28 -218881.83 691153.42
 -404841.39 23588.402 689599.18
 -427334.96 239894.65 632325.38
 -413602.24 395093.96 559315.60
 -379791.63 490154.31 505477.07
 -344250.85 537151.64 482658.74
 -81970.372 -651927.53 456367.56
 -161017.42 -619099.86 480404.78
 -275419.15 -542572.36 519383.79
 -395093.97 -413602.24 559315.60
 -494177.30 -238079.40 582328.94
 -553050.96 -43004.252 576441.91
 -566330.51 135627.33 548520.73
 -542572.36 275419.15 519383.79
 -496246.24 371480.28 505709.47
 -448318.05 424406.10 508812.72
 -146573.47 -612660.09 493116.45
 -244093.55 -574721.79 500113.18
 -371480.28 -496246.24 505709.47
 -490154.31 -379791.64 505477.07
 -578927.52 -237774.73 498303.22
 -628800.11 -89038.853 486500.26
 -640177.11 47898.362 477366.75
 -619099.86 161017.42 480404.78
 -574721.79 244093.55 500113.18
 -525658.97 291914.02 527701.48
 -179709.52 -566911.91 535084.45
 -291914.02 -525658.97 527701.48
 -424406.10 -448318.05 508812.72
 -537151.65 -344250.85 482658.74
 -615615.36 -227740.33 457331.46
 -658412.99 -111860.89 440431.02
 -669069.53 -6345.9434 438526.74
 -651927.53 81970.372 456367.56
 -612660.09 146573.47 493116.45
 -566911.91 179709.52 535084.45
 513046.61 -230248.55 569006.84
 565767.06 -194033.26 531280.27
 614955.26 -128323.24 495341.47
 642492.54 -41907.341 474812.71
 642916.87 58935.162 472424.11
 612992.94 168952.05 485484.15
 549529.91 281032.90 508957.16
 452634.10 384569.13 535937.46
 333988.13 465975.15 557959.76
 230248.55 513046.61 569006.84
 465975.15 -333988.13 557959.76
 519707.39 -283992.70 537821.88
 572135.04 -200851.86 521842.91
 602724.86 -91448.586 518034.65
 603173.28 38137.684 524144.55
 568723.12 178604.91 533530.03
 498159.91 315913.50 540402.96
 397374.75 434049.82 541935.48
 283992.70 519707.39 537821.88
 194033.26 565767.06 531280.27
 384569.13 -452634.10 535937.46
 434049.82 -397374.75 541935.48
 484757.34 -301089.96 560673.85
 515440.20 -166523.30 588720.13
 514379.61 283.47128 612710.00
 475101.44 181859.14 617418.72
 399698.46 351232.82 597391.54
 301089.96 484757.34 560673.85
 200851.86 572135.04 521842.91
 128323.24 614955.26 495341.47
 281032.90 -549529.91 508957.16
 315913.49 -498159.92 540402.96
 351232.82 -399698.46 597391.54
 370033.14 -248628.24 664273.64
 361020.92 -49072.558 712218.91
 318732.67 171500.16 713440.38
 248628.24 370033.14 664273.64
 166523.30 515440.20 588720.13
 91448.586 602724.86 518034.65
 41907.341 642492.54 474812.71
 168952.05 -612992.94 485484.15
 178604.91 -568723.13 533530.03
 181859.14 -475101.44 617418.72
 171500.16 -318732.67 713440.38
 144081.94 -100797.33 780435.96
 100797.33 144081.94 780435.96
 49072.558 361020.92 712218.91
 -283.47104 514379.61 612710.00
 -38137.685 603173.28 524144.55
 -58935.161 642916.87 472424.11
 58935.161 -642916.87 472424.11
 38137.686 -603173.28 524144.55
 283.46980 -514379.61 612710.00
 -49072.557 -361020.92 712218.91
 -100797.33 -144081.94 780435.96
 -144081.94 100797.33 780435.96
 -171500.16 318732.67 713440.38
 -181859.14 475101.44 617418.72
 -178604.91 568723.13 533530.03
 -168952.05 612992.94 485484.15
 -41907.341 -642492.54 474812.71
 -91448.587 -602724.86 518034.65
 -166523.30 -515440.20 588720.13
 -248628.24 -370033.14 664273.64
 -318732.67 -171500.16 713440.38
 -361020.92 49072.558 712218.91
 -370033.14 248628.24 664273.64
 -351232.82 399698.46 597391.54
 -315913.49 498159.91 540402.96
 -281032.90 549529.91 508957.16
 -128323.24 -614955.26 495341.47
 -200851.86 -572135.04 521842.91
 -301089.96 -484757.34 560673.85
 -399698.46 -351232.82 597391.54
 -475101.44 -181859.14 617418.72
 -514379.61 -283.47197 612710.00
 -515440.20 166523.30 588720.13
 -484757.34 301089.96 560673.85
 -434049.82 397374.75 541935.48
 -384569.13 452634.10 535937.46
 -194033.26 -565767.06 531280.27
 -283992.70 -519707.39 537821.88
 -397374.75 -434049.82 541935.48
 -498159.92 -315913.49 540402.96
 -568723.12 -178604.91 533530.03
 -603173.28 -38137.684 524144.55
 -602724.86 91448.584 518034.65
 -572135.04 200851.86 521842.91
 -519707.39 283992.70 537821.88
 -465975.15 333988.13 557959.76
 -230248.55 -513046.61 569006.84
 -333988.13 -465975.15 557959.76
 -452634.10 -384569.13 535937.46
 -549529.91 -281032.90 508957.16
 -612992.94 -168952.05 485484.14
 -642916.87 -58935.162 472424.11
 -642492.54 41907.342 474812.71
 -614955.26 128323.24 495341.47
 -565767.06 194033.26 531280.27
 -513046.61 230248.55 569006.84
 453833.60 -284058.00 594429.23
 515065.89 -243430.32 561648.30
 575348.65 -174290.07 527822.79
 614068.99 -87069.557 505309.97
 625708.84 11323.528 498357.53
 608274.65 116308.87 506432.81
 559664.61 222783.39 526443.81
 479625.97 322749.83 552984.16
 377117.97 404315.54 578196.32
 284058.00 453833.60 594429.23
 404315.54 -377117.97 578196.32
 463634.51 -325203.39 565053.80
 525196.11 -240462.09 553486.25
 566413.93 -131983.06 549322.98
 578976.82 -6957.7755 552030.29
 559220.86 126525.34 557909.82
 506101.69 257868.60 563351.45
 423490.42 374432.55 566088.45
 325203.39 463634.51 565053.80
 243430.32 515065.89 561648.30
 322749.83 -479625.97 552984.16
 374432.55 -423490.42 566088.45
 430962.50 -326635.91 589559.42
 470471.22 -194869.26 616994.98
 482006.15 -36147.473 637466.41
 460161.44 134614.95 640414.14
 405544.36 296807.93 622445.84
 326635.92 430962.49 589559.42
 240462.09 525196.11 553486.25
 174290.07 575348.65 527822.79
 222783.39 -559664.61 526443.81
 257868.60 -506101.69 563351.45
 296807.93 -405544.37 622445.84
 323346.06 -257556.74 684917.40
 327723.29 -69866.291 726440.74
 305101.68 134544.14 727193.81
 257556.74 323346.06 684917.41
 194869.25 470471.23 616994.98
 131983.06 566413.92 549322.98
 87069.558 614068.99 505309.97
 116308.87 -608274.65 506432.81
 126525.34 -559220.86 557909.82
 134614.95 -460161.44 640414.14
 134544.14 -305101.69 727193.81
 123457.09 -100964.11 783941.70
 100964.11 123457.09 783941.70
 69866.289 327723.29 726440.74
 36147.474 482006.15 637466.41
 6957.7759 578976.82 552030.28
 -11323.529 625708.84 498357.53
 11323.529 -625708.84 498357.53
 -6957.7783 -578976.82 552030.28
 -36147.471 -482006.15 637466.41
 -69866.292 -327723.29 726440.74
 -100964.11 -123457.09 783941.70
 -123457.09 100964.11 783941.70
 -134544.13 305101.68 727193.81
 -134614.95 460161.44 640414.14
 -126525.34 559220.86 557909.82
 -116308.87 608274.65 506432.81
 -87069.559 -614068.99 505309.97
 -131983.06 -566413.92 549322.98
 -194869.26 -470471.22 616994.98
 -257556.73 -323346.06 684917.41
 -305101.69 -134544.14 727193.81
 -327723.29 69866.291 726440.74
 -323346.06 257556.74 684917.40
 -296807.93 405544.36 622445.84
 -257868.60 506101.69 563351.45
 -222783.39 559664.61 526443.81
 -174290.07 -575348.65 527822.79
 -240462.09 -525196.11 553486.25
 -326635.91 -430962.50 589559.42
 -405544.37 -296807.93 622445.84
 -460161.44 -134614.95 640414.14
 -482006.15 36147.473 637466.41
 -470471.22 194869.25 616994.98
 -430962.50 326635.92 589559.42
 -374432.55 423490.42 566088.45
 -322749.83 479625.97 552984.16
 -243430.32 -515065.89 561648.29
 -325203.39 -463634.51 565053.80
 -423490.42 -374432.55 566088.44
 -506101.69 -257868.60 563351.45
 -559220.87 -126525.34 557909.81
 -578976.81 6957.7758 552030.29
 -566413.93 131983.06 549322.98
 -525196.11 240462.09 553486.25
 -463634.52 325203.39 565053.80
 -404315.54 377117.97 578196.32
 -284058.00 -453833.60 594429.23
 -377117.97 -404315.54 578196.32
 -479625.97 -322749.83 552984.16
 -559664.61 -222783.39 526443.81
 -608274.65 -116308.87 506432.81
 -625708.84 -11323.528 498357.53
 -614068.99 87069.557 505309.97
 -575348.65 174290.07 527822.79
 -515065.89 243430.32 561648.30
 -453833.60 284058.00 594429.23
 394966.29 -338620.73 607731.55
 465979.41 -293537.48 580257.65
 538737.89 -219735.46 549069.95
 589625.27 -129393.16 524975.67
 612665.71 -30712.845 513514.80
 606962.84 71458.187 516226.54
 571795.96 173042.35 532076.80
 507259.37 268039.12 557532.92
 420404.83 346501.36 585829.83
 338620.73 394966.29 607731.55
 346501.36 -420404.83 585829.83
 412445.96 -367073.63 578917.33
 484503.84 -279953.64 571735.94
 537523.32 -169915.08 567624.48
 562350.46 -45908.860 567145.78
 555953.91 83708.974 569129.21
 517943.37 210089.92 572360.81
 451338.00 323303.94 575993.55
 367073.63 412445.96 578917.33
 293537.48 465979.41 580257.65
 268039.11 -507259.37 557532.92
 323303.95 -451338.00 575993.55
 387493.11 -353959.81 603789.32
 437503.80 -222582.08 631702.18
 461675.32 -67102.618 649887.02
 454727.88 97869.879 650879.44
 416769.23 254810.25 633541.75
 353959.81 387493.11 603789.32
 279953.64 484503.84 571735.95
 219735.46 538737.89 549069.95
 173042.35 -571795.96 532076.80
 210089.92 -517943.37 572360.81
 254810.25 -416769.22 633541.75
 290800.49 -270195.56 694571.41
 307896.47 -88086.656 733103.34
 300855.17 108059.81 733354.79
 270195.55 290800.49 694571.41
 222582.08 437503.80 631702.18
 169915.08 537523.32 567624.47
 129393.16 589625.27 524975.67
 71458.187 -606962.84 516226.54
 83708.973 -555953.91 569129.21
 97869.880 -454727.88 650879.43
 108059.81 -300855.17 733354.79
 110594.54 -103702.63 785502.78
 103702.63 110594.54 785502.78
 88086.659 307896.46 733103.34
 67102.616 461675.33 649887.02
 45908.859 562350.46 567145.78
 30712.846 612665.71 513514.80
 -30712.847 -612665.71 513514.80
 -45908.856 -562350.46 567145.78
 -67102.621 -461675.32 649887.02
 -88086.655 -307896.47 733103.34
 -103702.63 -110594.54 785502.78
 -110594.54 103702.63 785502.78
 -108059.81 300855.17 733354.79
 -97869.878 454727.88 650879.44
 -83708.975 555953.91 569129.21
 -71458.186 606962.84 516226.54
 -129393.16 -589625.27 524975.67
 -169915.09 -537523.32 567624.47
 -222582.07 -437503.80 631702.18
 -270195.56 -290800.49 694571.41
 -300855.17 -108059.81 733354.79
 -307896.47 88086.656 733103.34
 -290800.49 270195.56 694571.41
 -254810.25 416769.23 633541.75
 -210089.92 517943.37 572360.81
 -173042.35 571795.96 532076.80
 -219735.46 -538737.89 549069.95
 -279953.64 -484503.83 571735.95
 -353959.81 -387493.11 603789.32
 -416769.22 -254810.25 633541.75
 -454727.88 -97869.879 650879.43
 -461675.32 67102.619 649887.02
 -437503.80 222582.08 631702.18
 -387493.11 353959.81 603789.32
 -323303.95 451338.00 575993.55
 -268039.11 507259.37 557532.92
 -293537.47 -465979.41 580257.65
 -367073.63 -412445.96 578917.33
 -451337.99 -323303.94 575993.55
 -517943.37 -210089.92 572360.81
 -555953.90 -83708.974 569129.22
 -562350.46 45908.859 567145.78
 -537523.32 169915.08 567624.48
 -484503.84 279953.64 571735.94
 -412445.96 367073.63 578917.33
 -346501.36 420404.83 585829.83
 -338620.73 -394966.29 607731.55
 -420404.83 -346501.36 585829.83
 -507259.37 -268039.11 557532.92
 -571795.96 -173042.35 532076.81
 -606962.84 -71458.187 516226.54
 -612665.71 30712.845 513514.80
 -589625.27 129393.16 524975.67
 -538737.89 219735.46 549069.95
 -465979.41 293537.47 580257.65
 -394966.29 338620.73 607731.55
 338620.73 -394966.29 607731.55
 420404.83 -346501.36 585829.83
 507259.37 -268039.12 557532.92
 571795.96 -173042.35 532076.80
 606962.84 -71458.187 516226.54
 612665.71 30712.846 513514.80
 589625.27 129393.16 524975.67
 538737.89 219735.46 549069.95
 465979.41 293537.48 580257.65
 394966.29 338620.73 607731.55
 293537.48 -465979.41 580257.65
 367073.63 -412445.96 578917.33
 451338.00 -323303.94 575993.55
 517943.37 -210089.92 572360.81
 555953.91 -83708.973 569129.21
 562350.46 45908.858 567145.78
 537523.32 169915.08 567624.47
 484503.83 279953.64 571735.95
 412445.96 367073.63 578917.33
 346501.36 420404.83 585829.83
 219735.46 -538737.89 549069.95
 279953.64 -484503.83 571735.95
 353959.81 -387493.11 603789.32
 416769.22 -254810.25 633541.75
 454727.88 -97869.880 650879.43
 461675.32 67102.619 649887.02
 437503.80 222582.08 631702.18
 387493.11 353959.81 603789.32
 323303.94 451338.00 575993.55
 268039.11 507259.37 557532.92
 129393.16 -589625.27 524975.67
 169915.08 -537523.32 567624.47
 222582.08 -437503.80 631702.18
 270195.56 -290800.48 694571.41
 300855.17 -108059.81 733354.79
 307896.46 88086.656 733103.34
 290800.49 270195.56 694571.41
 254810.25 416769.22 633541.75
 210089.92 517943.37 572360.81
 173042.35 571795.96 532076.80
 30712.845 -612665.71 513514.80
 45908.860 -562350.46 567145.78
 67102.617 -461675.32 649887.02
 88086.658 -307896.47 733103.34
 103702.63 -110594.54 785502.78
 110594.54 103702.63 785502.78
 108059.81 300855.17 733354.79
 97869.880 454727.88 650879.44
 83708.973 555953.91 569129.21
 71458.187 606962.84 516226.54
 -71458.186 -606962.84 516226.54
 -83708.976 -555953.91 569129.21
 -97869.877 -454727.88 650879.43
 -108059.81 -300855.17 733354.79
 -110594.54 -103702.63 785502.78
 -103702.63 110594.54 785502.78
 -88086.656 307896.47 733103.34
 -67102.619 461675.32 649887.02
 -45908.858 562350.46 567145.78
 -30712.846 612665.71 513514.80
 -173042.35 -571795.96 532076.80
 -210089.91 -517943.37 572360.81
 -254810.25 -416769.22 633541.75
 -290800.49 -270195.56 694571.41
 -307896.47 -88086.656 733103.34
 -300855.17 108059.81 733354.79
 -270195.56 290800.49 694571.41
 -222582.08 437503.80 631702.18
 -169915.09 537523.32 567624.47
 -129393.16 589625.27 524975.67
 -268039.11 -507259.37 557532.92
 -323303.95 -451338.00 575993.55
 -387493.11 -353959.81 603789.32
 -437503.80 -222582.08 631702.18
 -461675.32 -67102.619 649887.02
 -454727.88 97869.879 650879.44
 -416769.23 254810.25 633541.75
 -353959.81 387493.11 603789.32
 -279953.64 484503.84 571735.95
 -219735.46 538737.89 549069.95
 -346501.36 -420404.83 585829.83
 -412445.96 -367073.63 578917.33
 -484503.84 -279953.64 571735.94
 -537523.32 -169915.09 567624.48
 -562350.46 -45908.858 567145.78
 -555953.91 83708.973 569129.21
 -517943.37 210089.92 572360.81
 -451338.00 323303.94 575993.55
 -367073.63 412445.96 578917.33
 -293537.47 465979.41 580257.65
 -394966.29 -338620.73 607731.55
 -465979.41 -293537.48 580257.65
 -538737.89 -219735.46 549069.96
 -589625.27 -129393.16 524975.67
 -612665.71 -30712.846 513514.80
 -606962.84 71458.187 516226.54
 -571795.96 173042.35 532076.80
 -507259.37 268039.12 557532.92
 -420404.83 346501.36 585829.83
 -338620.73 394966.29 607731.55
 284058.00 -453833.60 594429.23
 377117.97 -404315.54 578196.32
 479625.97 -322749.83 552984.16
 559664.61 -222783.39 526443.81
 608274.65 -116308.87 506432.81
 625708.84 -11323.529 498357.53
 614068.99 87069.557 505309.97
 575348.65 174290.07 527822.79
 515065.89 243430.32 561648.29
 453833.60 284058.00 594429.23
 243430.32 -515065.89 561648.30
 325203.39 -463634.51 565053.80
 423490.42 -374432.55 566088.45
 506101.69 -257868.60 563351.45
 559220.86 -126525.34 557909.82
 578976.82 6957.7766 552030.29
 566413.92 131983.06 549322.98
 525196.11 240462.09 553486.25
 463634.51 325203.39 565053.80
 404315.54 377117.97 578196.32
 174290.07 -575348.65 527822.79
 240462.09 -525196.11 553486.25
 326635.92 -430962.50 589559.42
 405544.36 -296807.93 622445.84
 460161.44 -134614.95 640414.14
 482006.15 36147.472 637466.41
 470471.22 194869.25 616994.98
 430962.50 326635.92 589559.42
 374432.55 423490.42 566088.45
 322749.83 479625.97 552984.16
 87069.557 -614068.99 505309.97
 131983.06 -566413.92 549322.98
 194869.26 -470471.22 616994.98
 257556.74 -323346.06 684917.40
 305101.69 -134544.13 727193.81
 327723.29 69866.291 726440.74
 323346.06 257556.74 684917.40
 296807.93 405544.36 622445.84
 257868.60 506101.69 563351.45
 222783.39 559664.61 526443.81
 -11323.528 -625708.84 498357.53
 6957.7752 -578976.82 552030.28
 36147.474 -482006.16 637466.41
 69866.290 -327723.29 726440.74
 100964.11 -123457.09 783941.70
 123457.09 100964.11 783941.70
 134544.14 305101.68 727193.81
 134614.95 460161.44 640414.14
 126525.34 559220.86 557909.82
 116308.87 608274.65 506432.81
 -116308.87 -608274.65 506432.81
 -126525.34 -559220.86 557909.82
 -134614.95 -460161.44 640414.14
 -134544.13 -305101.69 727193.81
 -123457.09 -100964.11 783941.70
 -100964.11 123457.09 783941.70
 -69866.291 327723.29 726440.74
 -36147.473 482006.15 637466.41
 -6957.7764 578976.82 552030.29
 11323.529 625708.84 498357.53
 -222783.39 -559664.61 526443.81
 -257868.60 -506101.69 563351.45
 -296807.93 -405544.37 622445.84
 -323346.06 -257556.73 684917.41
 -327723.29 -69866.292 726440.74
 -305101.68 134544.14 727193.81
 -257556.74 323346.06 684917.40
 -194869.25 470471.22 616994.98
 -131983.06 566413.93 549322.98
 -87069.558 614068.99 505309.97
 -322749.83 -479625.97 552984.16
 -374432.55 -423490.42 566088.45
 -430962.50 -326635.91 589559.42
 -470471.22 -194869.26 616994.98
 -482006.15 -36147.472 637466.41
 -460161.44 134614.94 640414.14
 -405544.36 296807.93 622445.84
 -326635.92 430962.49 589559.42
 -240462.09 525196.11 553486.25
 -174290.07 575348.65 527822.79
 -404315.54 -377117.97 578196.32
 -463634.51 -325203.39 565053.80
 -525196.11 -240462.09 553486.25
 -566413.93 -131983.06 549322.98
 -578976.81 -6957.7773 552030.29
 -559220.86 126525.34 557909.82
 -506101.69 257868.60 563351.45
 -423490.42 374432.55 566088.45
 -325203.39 463634.51 565053.80
 -243430.32 515065.89 561648.30
 -453833.60 -284058.00 594429.23
 -515065.89 -243430.32 561648.30
 -575348.65 -174290.07 527822.79
 -614068.99 -87069.558 505309.97
 -625708.84 11323.529 498357.53
 -608274.65 116308.87 506432.81
 -559664.61 222783.39 526443.81
 -479625.97 322749.83 552984.16
 -377117.97 404315.54 578196.32
 -284058.00 453833.60 594429.23
 230248.55 -513046.61 569006.84
 333988.13 -465975.15 557959.76
 452634.10 -384569.13 535937.46
 549529.91 -281032.90 508957.16
 612992.94 -168952.05 485484.14
 642916.87 -58935.162 472424.11
 642492.54 41907.342 474812.71
 614955.26 128323.24 495341.47
 565767.06 194033.26 531280.27
 513046.61 230248.55 569006.84
 194033.26 -565767.06 531280.27
 283992.70 -519707.39 537821.88
 397374.75 -434049.82 541935.48
 498159.92 -315913.49 540402.96
 568723.12 -178604.91 533530.03
 603173.28 -38137.684 524144.55
 602724.86 91448.585 518034.65
 572135.04 200851.86 521842.91
 519707.39 283992.70 537821.88
 465975.15 333988.13 557959.76
 128323.24 -614955.26 495341.47
 200851.86 -572135.04 521842.91
 301089.96 -484757.34 560673.85
 399698.46 -351232.82 597391.54
 475101.44 -181859.14 617418.72
 514379.61 -283.47144 612710.00
 515440.20 166523.30 588720.13
 484757.34 301089.96 560673.85
 434049.82 397374.75 541935.48
 384569.13 452634.10 535937.46
 41907.341 -642492.54 474812.71
 91448.586 -602724.86 518034.65
 166523.30 -515440.20 588720.13
 248628.24 -370033.14 664273.64
 318732.67 -171500.16 713440.38
 361020.92 49072.558 712218.91
 370033.14 248628.24 664273.64
 351232.82 399698.46 597391.54
 315913.49 498159.92 540402.96
 281032.90 549529.91 508957.16
 -58935.162 -642916.87 472424.11
 -38137.685 -603173.28 524144.55
 -283.47083 -514379.61 612710.00
 49072.557 -361020.92 712218.91
 100797.33 -144081.94 780435.96
 144081.94 100797.33 780435.96
 171500.16 318732.67 713440.38
 181859.14 475101.44 617418.72
 178604.91 568723.12 533530.03
 168952.05 612992.94 485484.14
 -168952.05 -612992.94 485484.15
 -178604.91 -568723.13 533530.03
 -181859.14 -475101.44 617418.72
 -171500.16 -318732.67 713440.38
 -144081.94 -100797.33 780435.96
 -100797.33 144081.94 780435.96
 -49072.558 361020.92 712218.91
 283.47159 514379.61 612710.00
 38137.684 603173.28 524144.55
 58935.162 642916.87 472424.11
 -281032.90 -549529.91 508957.16
 -315913.50 -498159.92 540402.96
 -351232.82 -399698.46 597391.54
 -370033.14 -248628.24 664273.64
 -361020.92 -49072.557 712218.91
 -318732.67 171500.16 713440.38
 -248628.24 370033.14 664273.64
 -166523.30 515440.20 588720.13
 -91448.585 602724.86 518034.65
 -41907.341 642492.54 474812.71
 -384569.13 -452634.10 535937.46
 -434049.82 -397374.75 541935.48
 -484757.34 -301089.96 560673.85
 -515440.20 -166523.30 588720.13
 -514379.61 283.47005 612710.00
 -475101.44 181859.14 617418.72
 -399698.46 351232.82 597391.54
 -301089.96 484757.34 560673.85
 -200851.86 572135.04 521842.91
 -128323.24 614955.26 495341.47
 -465975.15 -333988.13 557959.76
 -519707.39 -283992.70 537821.88
 -572135.04 -200851.86 521842.91
 -602724.86 -91448.587 518034.65
 -603173.28 38137.686 524144.55
 -568723.12 178604.91 533530.03
 -498159.92 315913.50 540402.96
 -397374.75 434049.82 541935.48
 -283992.70 519707.39 537821.88
 -194033.26 565767.06 531280.27
 -513046.61 -230248.55 569006.84
 -565767.06 -194033.26 531280.27
 -614955.26 -128323.24 495341.47
 -642492.54 -41907.341 474812.71
 -642916.87 58935.161 472424.11
 -612992.94 168952.05 485484.14
 -549529.91 281032.90 508957.16
 -452634.10 384569.13 535937.46
 -333988.13 465975.15 557959.76
 -230248.55 513046.61 569006.84
 179709.52 -566911.91 535084.45
 291914.02 -525658.97 527701.48
 424406.10 -448318.05 508812.72
 537151.64 -344250.85 482658.74
 615615.36 -227740.33 457331.46
 658412.99 -111860.89 440431.02
 669069.53 -6345.9434 438526.74
 651927.53 81970.372 456367.56
 612660.09 146573.47 493116.45
 566911.91 179709.52 535084.45
 146573.47 -612660.09 493116.45
 244093.55 -574721.79 500113.18
 371480.28 -496246.24 505709.47
 490154.31 -379791.63 505477.07
 578927.52 -237774.73 498303.23
 628800.11 -89038.852 486500.26
 640177.11 47898.361 477366.75
 619099.86 161017.42 480404.78
 574721.79 244093.55 500113.18
 525658.97 291914.02 527701.48
 81970.372 -651927.53 456367.56
 161017.42 -619099.86 480404.78
 275419.15 -542572.36 519383.79
 395093.97 -413602.24 559315.60
 494177.30 -238079.40 582328.94
 553050.96 -43004.253 576441.91
 566330.50 135627.33 548520.73
 542572.36 275419.15 519383.79
 496246.24 371480.28 505709.47
 448318.05 424406.10 508812.72
 -6345.9428 -669069.53 438526.74
 47898.360 -640177.11 477366.75
 135627.33 -566330.50 548520.73
 239894.65 -427334.97 632325.38
 338227.28 -218881.83 691153.42
 404841.39 23588.403 689599.19
 427334.97 239894.65 632325.38
 413602.24 395093.96 559315.60
 379791.63 490154.31 505477.07
 344250.85 537151.65 482658.74
 -111860.89 -658412.98 440431.02
 -89038.851 -628800.11 486500.26
 -43004.255 -553050.96 576441.91
 23588.404 -404841.39 689599.19
 101719.91 -172606.05 774506.43
 172606.05 101719.91 774506.43
 218881.83 338227.28 691153.42
 238079.40 494177.31 582328.93
 237774.73 578927.52 498303.23
 227740.33 615615.36 457331.46
 -227740.33 -615615.36 457331.46
 -237774.73 -578927.52 498303.23
 -238079.40 -494177.31 582328.94
 -218881.83 -338227.28 691153.42
 -172606.05 -101719.91 774506.43
 -101719.91 172606.05 774506.43
 -23588.403 404841.39 689599.18
 43004.253 553050.96 576441.91
 89038.852 628800.11 486500.26
 111860.89 658412.99 440431.02
 -344250.85 -537151.64 482658.74
 -379791.63 -490154.31 505477.07
 -413602.24 -395093.96 559315.60
 -427334.96 -239894.65 632325.38
 -404841.39 -23588.404 689599.18
 -338227.28 218881.83 691153.42
 -239894.65 427334.96 632325.38
 -135627.33 566330.50 548520.73
 -47898.361 640177.11 477366.75
 6345.9429 669069.53 438526.74
 -448318.05 -424406.10 508812.72
 -496246.24 -371480.28 505709.47
 -542572.36 -275419.15 519383.79
 -566330.51 -135627.33 548520.73
 -553050.96 43004.254 576441.91
 -494177.31 238079.40 582328.94
 -395093.96 413602.24 559315.60
 -275419.15 542572.36 519383.79
 -161017.42 619099.86 480404.78
 -81970.372 651927.53 456367.56
 -525658.97 -291914.02 527701.48
 -574721.79 -244093.55 500113.19
 -619099.86 -161017.42 480404.78
 -640177.11 -47898.360 477366.75
 -628800.11 89038.851 486500.26
 -578927.52 237774.73 498303.23
 -490154.31 379791.63 505477.07
 -371480.28 496246.24 505709.47
 -244093.55 574721.79 500113.18
 -146573.47 612660.09 493116.45
 -566911.91 -179709.52 535084.45
 -612660.09 -146573.47 493116.45
 -651927.53 -81970.372 456367.56
 -669069.53 6345.9426 438526.74
 -658412.99 111860.89 440431.02
 -615615.36 227740.33 457331.46
 -537151.64 344250.85 482658.74
 -424406.10 448318.05 508812.72
 -291914.02 525658.97 527701.48
 -179709.52 566911.91 535084.45
 142640.46 -606822.53 501418.11
 259889.58 -571484.36 495845.78
 399931.01 -499670.52 479983.91
 523066.05 -397849.05 456199.56
 613022.31 -279567.88 431329.85
 666594.43 -159105.92 412719.24
 686615.49 -48406.257 407695.96
 677996.81 43771.590 422379.42