# OOMMF OVF 2.0
#
# Segment count: 1
#
# Begin: Segment
# Begin: Header
#
# Title: Oxs_MinDriver::Magnetization
# Desc: Oxs vector field output
# Desc:  MIF source file: /home/ryan/Git/joommf/tools/omfvis/cube_example.mif
# Desc:  Iteration: 4246, State id: 8936
# Desc:  Stage: 21, Stage iteration: 133
# Desc:  Stage simulation time: 0 s
# Desc:  Total simulation time: -2 s
# meshunit: m
# meshtype: rectangular
# xbase: 2.5000000000000001e-09
# ybase: 2.5000000000000001e-09
# zbase: 2.5000000000000001e-09
# xnodes: 10
# ynodes: 10
# znodes: 10
# xstepsize: 5.0000000000000001e-09
# ystepsize: 5.0000000000000001e-09
# zstepsize: 5.0000000000000001e-09
# xmin: 0
# ymin: 0
# zmin: 0
# xmax: 4.9999999999999998e-08
# ymax: 4.9999999999999998e-08
# zmax: 4.9999999999999998e-08
# valuedim: 3
# valuelabels: Magnetization_x Magnetization_y Magnetization_z
# valueunits: A/m A/m A/m
#
# End: Header
#
# Begin: Data Text
 445894.09 102136.53 656312.87
 459433.69 114358.94 644858.68
 459544.11 144318.64 638742.00
 438140.27 191146.09 641479.76
 390223.06 250812.59 651781.41
 313725.39 315731.61 664748.02
 211717.20 375425.58 673966.96
 94646.636 419490.63 674588.48
 -19105.570 442066.02 666492.77
 -102136.53 445894.09 656312.87
 442066.02 19105.569 666492.77
 455771.76 38511.132 656345.18
 454333.49 79290.291 653677.39
 429545.99 141076.77 659990.60
 376504.97 218818.35 671090.56
 294146.64 301956.04 679926.69
 187931.48 376327.35 680484.74
 70744.634 429433.10 671254.35
 -38511.132 455771.76 656345.18
 -114358.94 459433.69 644858.68
 419490.63 -94646.637 674588.48
 429433.10 -70744.635 671254.35
 422745.00 -19394.726 678903.90
 391309.76 59424.437 695230.47
 330367.49 159424.89 710943.76
 240811.81 265656.52 715147.74
 131944.95 358438.69 702931.18
 19394.725 422745.00 678903.90
 -79290.291 454333.49 653677.39
 -144318.64 459544.11 638742.00
 375425.58 -211717.20 673966.96
 376327.35 -187931.48 680484.74
 358438.69 -131944.95 702931.18
 315382.75 -41489.866 734038.36
 243868.61 77143.231 758008.59
 148108.49 204725.45 759046.35
 41489.866 315382.74 734038.36
 -59424.437 391309.76 695230.47
 -141076.77 429545.99 659990.60
 -191146.09 438140.27 641479.76
 315731.61 -313725.39 664748.02
 301956.04 -294146.64 679926.69
 265656.52 -240811.81 715147.74
 204725.45 -148108.49 759046.35
 120039.38 -20720.674 790671.36
 20720.674 120039.38 790671.36
 -77143.231 243868.61 758008.59
 -159424.89 330367.49 710943.76
 -218818.35 376504.97 671090.56
 -250812.59 390223.06 651781.41
 250812.59 -390223.06 651781.41
 218818.35 -376504.97 671090.56
 159424.89 -330367.49 710943.76
 77143.232 -243868.61 758008.59
 -20720.673 -120039.38 790671.36
 -120039.38 20720.673 790671.36
 -204725.45 148108.49 759046.35
 -265656.52 240811.81 715147.74
 -301956.04 294146.64 679926.69
 -315731.61 313725.39 664748.02
 191146.09 -438140.27 641479.75
 141076.77 -429545.99 659990.59
 59424.438 -391309.76 695230.47
 -41489.866 -315382.75 734038.36
 -148108.49 -204725.45 759046.35
 -243868.61 -77143.232 758008.59
 -315382.74 41489.866 734038.36
 -358438.69 131944.95 702931.18
 -376327.35 187931.48 680484.74
 -375425.58 211717.20 673966.96
 144318.64 -459544.11 638742.00
 79290.291 -454333.49 653677.39
 -19394.725 -422745.00 678903.90
 -131944.95 -358438.69 702931.18
 -240811.81 -265656.52 715147.74
 -330367.49 -159424.89 710943.76
 -391309.76 -59424.438 695230.47
 -422745.00 19394.726 678903.90
 -429433.10 70744.635 671254.35
 -419490.63 94646.637 674588.48
 114358.94 -459433.69 644858.68
 38511.132 -455771.76 656345.18
 -70744.634 -429433.10 671254.35
 -187931.48 -376327.35 680484.74
 -294146.64 -301956.04 679926.69
 -376504.97 -218818.35 671090.56
 -429545.99 -141076.77 659990.59
 -454333.49 -79290.291 653677.39
 -455771.76 -38511.132 656345.18
 -442066.02 -19105.569 666492.77
 102136.53 -445894.09 656312.87
 19105.570 -442066.02 666492.77
 -94646.636 -419490.64 674588.48
 -211717.20 -375425.58 673966.96
 -313725.39 -315731.61 664748.02
 -390223.06 -250812.59 651781.41
 -438140.27 -191146.09 641479.76
 -459544.11 -144318.64 638742.00
 -459433.69 -114358.94 644858.68
 -445894.09 -102136.53 656312.87
 392016.45 56433.183 695081.58
 411630.01 62946.430 683080.14
 419851.59 87635.828 675310.75
 407636.96 128932.30 676172.00
 370801.88 182829.81 684893.59
 307721.42 243073.19 697296.89
 220671.60 301197.69 707519.61
 118176.80 348282.06 710446.23
 16871.988 378354.31 704672.51
 -56433.183 392016.45 695081.58
 378354.31 -16871.989 704672.51
 397420.82 -812.54796 694302.55
 403579.48 34850.211 689861.63
 388062.43 89681.479 693804.57
 347438.42 159342.63 702777.68
 281255.70 235497.72 710940.26
 193584.83 306927.28 712966.03
 94523.668 362919.43 706650.38
 812.54769 397420.82 694302.55
 -62946.430 411630.01 683080.14
 348282.06 -118176.80 710446.23
 362919.43 -94523.669 706650.38
 363175.51 -47239.036 711246.81
 341381.70 23393.437 723126.05
 295114.34 112291.27 735049.79
 225614.25 208196.91 738750.47
 139187.11 296118.32 730028.00
 47239.036 363175.51 711246.81
 -34850.212 403579.48 689861.63
 -87635.828 419851.59 675310.75
 301197.69 -220671.60 707519.61
 306927.28 -193584.83 712966.03
 296118.32 -139187.11 730028.00
 264007.12 -56754.709 753046.58
 210248.05 48126.463 770376.27
 138418.52 161301.26 771247.18
 56754.709 264007.12 753046.58
 -23393.437 341381.70 723126.05
 -89681.480 388062.43 693804.57
 -128932.30 407636.96 676172.00
 243073.19 -307721.42 697296.89
 235497.73 -281255.70 710940.26
 208196.91 -225614.25 738750.47
 161301.26 -138418.52 771247.18
 98107.180 -25186.193 793561.99
 25186.192 98107.180 793561.99
 -48126.462 210248.05 770376.27
 -112291.27 295114.34 735049.79
 -159342.63 347438.42 702777.68
 -182829.81 370801.88 684893.59
 182829.81 -370801.88 684893.59
 159342.63 -347438.42 702777.68
 112291.27 -295114.34 735049.79
 48126.463 -210248.05 770376.27
 -25186.191 -98107.179 793561.99
 -98107.179 25186.190 793561.99
 -161301.26 138418.52 771247.18
 -208196.91 225614.25 738750.47
 -235497.73 281255.70 710940.26
 -243073.19 307721.42 697296.89
 128932.30 -407636.96 676172.00
 89681.480 -388062.43 693804.57
 23393.437 -341381.70 723126.05
 -56754.708 -264007.12 753046.58
 -138418.52 -161301.26 771247.18
 -210248.05 -48126.462 770376.27
 -264007.12 56754.708 753046.58
 -296118.32 139187.11 730028.00
 -306927.28 193584.83 712966.03
 -301197.69 220671.60 707519.61
 87635.828 -419851.59 675310.75
 34850.212 -403579.49 689861.62
 -47239.036 -363175.51 711246.81
 -139187.11 -296118.32 730028.00
 -225614.25 -208196.91 738750.47
 -295114.34 -112291.27 735049.79
 -341381.70 -23393.436 723126.05
 -363175.51 47239.035 711246.81
 -362919.43 94523.669 706650.38
 -348282.06 118176.80 710446.23
 62946.430 -411630.01 683080.14
 -812.54769 -397420.82 694302.55
 -94523.668 -362919.43 706650.38
 -193584.83 -306927.28 712966.03
 -281255.69 -235497.73 710940.26
 -347438.42 -159342.63 702777.68
 -388062.43 -89681.480 693804.57
 -403579.49 -34850.211 689861.62
 -397420.82 812.54785 694302.55
 -378354.31 16871.989 704672.51
 56433.183 -392016.45 695081.58
 -16871.988 -378354.31 704672.51
 -118176.80 -348282.06 710446.23
 -220671.60 -301197.69 707519.61
 -307721.42 -243073.19 697296.89
 -370801.88 -182829.82 684893.59
 -407636.96 -128932.30 676172.00
 -419851.59 -87635.828 675310.75
 -411630.01 -62946.430 683080.14
 -392016.45 -56433.183 695081.58
 321797.47 -1819.6721 732422.74
 345795.27 3835.0107 721395.12
 362780.67 25793.548 712548.16
 362376.43 62431.278 710482.69
 340529.29 110097.59 715484.68
 295938.21 164030.90 724923.75
 230069.87 218190.81 734479.83
 148877.88 265864.86 739696.73
 65176.038 301350.19 738200.62
 1819.6717 321797.47 732422.74
 301350.18 -65176.039 738200.62
 323569.86 -49883.590 729941.21
 337921.58 -17378.165 724918.62
 334570.63 31324.533 726003.63
 310378.22 92511.729 731510.04
 264993.07 160118.43 737658.97
 200955.68 226249.02 740559.38
 125038.74 282770.65 737838.78
 49883.589 323569.86 729941.21
 -3835.0110 345795.27 721395.12
 265864.86 -148877.89 739696.73
 282770.65 -125038.75 737838.78
 290832.99 -80780.207 740871.60
 281934.32 -17793.338 748462.71
 254179.83 59614.626 756200.18
 208407.78 143590.45 758912.37
 148226.55 223912.96 753586.01
 80780.207 290832.99 740871.60
 17378.164 337921.58 724918.62
 -25793.548 362780.67 712548.16
 218190.81 -230069.87 734479.83
 226249.02 -200955.68 740559.38
 223912.96 -148226.55 753586.01
 206385.16 -73933.614 769375.71
 173715.31 16815.414 780730.58
 128128.20 114354.93 781348.91
 73933.615 206385.16 769375.71
 17793.337 281934.32 748462.71
 -31324.533 334570.63 726003.63
 -62431.279 362376.43 710482.69
 164030.90 -295938.21 724923.75
 160118.43 -264993.07 737658.97
 143590.45 -208407.78 758912.37
 114354.93 -128128.20 781348.91
 75194.974 -29930.821 795895.64
 29930.822 75194.973 795895.64
 -16815.415 173715.31 780730.58
 -59614.625 254179.83 756200.18
 -92511.729 310378.22 731510.04
 -110097.59 340529.29 715484.68
 110097.59 -340529.29 715484.68
 92511.729 -310378.22 731510.04
 59614.626 -254179.83 756200.18
 16815.414 -173715.30 780730.58
 -29930.821 -75194.976 795895.63
 -75194.975 29930.823 795895.63
 -114354.93 128128.20 781348.91
 -143590.45 208407.78 758912.37
 -160118.43 264993.07 737658.97
 -164030.90 295938.21 724923.75
 62431.278 -362376.43 710482.69
 31324.534 -334570.64 726003.63
 -17793.338 -281934.32 748462.71
 -73933.614 -206385.16 769375.71
 -128128.20 -114354.93 781348.91
 -173715.30 -16815.416 780730.58
 -206385.16 73933.615 769375.71
 -223912.96 148226.55 753586.01
 -226249.02 200955.69 740559.38
 -218190.81 230069.87 734479.83
 25793.548 -362780.67 712548.16
 -17378.165 -337921.58 724918.62
 -80780.207 -290832.99 740871.60
 -148226.55 -223912.96 753586.01
 -208407.78 -143590.45 758912.37
 -254179.83 -59614.625 756200.18
 -281934.32 17793.337 748462.72
 -290832.99 80780.208 740871.60
 -282770.65 125038.74 737838.79
 -265864.86 148877.89 739696.73
 3835.0109 -345795.27 721395.12
 -49883.589 -323569.86 729941.21
 -125038.74 -282770.65 737838.79
 -200955.68 -226249.02 740559.38
 -264993.07 -160118.43 737658.97
 -310378.22 -92511.729 731510.04
 -334570.63 -31324.533 726003.63
 -337921.58 17378.164 724918.62
 -323569.86 49883.590 729941.21
 -301350.18 65176.039 738200.62
 -1819.6718 -321797.47 732422.74
 -65176.039 -301350.19 738200.62
 -148877.88 -265864.86 739696.73
 -230069.87 -218190.81 734479.83
 -295938.21 -164030.90 724923.75
 -340529.29 -110097.59 715484.68
 -362376.43 -62431.279 710482.69
 -362780.67 -25793.548 712548.16
 -345795.27 -3835.0108 721395.12
 -321797.47 1819.6722 732422.74
 249174.03 -61354.293 757725.51
 278132.00 -52676.937 748243.09
 304531.17 -29580.438 739179.11
 316887.52 5604.5184 734541.28
 310814.56 49382.148 735496.91
 284986.91 98001.933 741065.51
 240196.73 147199.30 748757.57
 180281.35 192105.81 755376.72
 114426.84 227645.65 758342.90
 61354.292 249174.03 757725.51
 227645.65 -114426.84 758342.90
 253379.12 -97336.636 752545.41
 276289.31 -64663.575 747985.86
 285665.34 -18698.434 747024.55
 277886.61 36958.694 749275.04
 252222.23 97661.806 752891.84
 210004.18 157867.31 755629.64
 155415.19 211627.60 755685.04
 97336.635 253379.12 752545.41
 52676.937 278132.00 748243.09
 192105.81 -180281.35 755376.72
 211627.60 -155415.19 755685.04
 227695.59 -111972.86 758694.14
 231714.83 -53332.019 763848.11
 221197.67 16302.292 768638.94
 196150.89 91079.366 770213.85
 158361.69 163927.64 766843.73
 111972.86 227695.59 758694.14
 64663.575 276289.31 747985.86
 29580.437 304531.17 739179.11
 147199.30 -240196.73 748757.57
 157867.31 -210004.18 755629.64
 163927.64 -158361.69 766843.73
 160188.46 -89561.853 778664.45
 145796.06 -8623.6290 786555.24
 121583.92 77408.286 786908.70
 89561.851 160188.46 778664.45
 53332.020 231714.83 763848.11
 18698.433 285665.34 747024.55
 -5604.5182 316887.52 734541.28
 98001.934 -284986.91 741065.51
 97661.805 -252222.23 752891.84
 91079.367 -196150.89 770213.85
 77408.285 -121583.92 786908.70
 57882.736 -34263.361 797167.24
 34263.359 57882.736 797167.24
 8623.6304 145796.06 786555.24
 -16302.293 221197.67 768638.94
 -36958.693 277886.61 749275.04
 -49382.149 310814.56 735496.91
 49382.148 -310814.56 735496.91
 36958.695 -277886.61 749275.04
 16302.290 -221197.67 768638.94
 -8623.6278 -145796.06 786555.24
 -34263.361 -57882.735 797167.24
 -57882.734 34263.359 797167.24
 -77408.287 121583.92 786908.70
 -91079.365 196150.89 770213.85
 -97661.807 252222.23 752891.84
 -98001.933 284986.91 741065.51
 5604.5190 -316887.53 734541.28
 -18698.434 -285665.34 747024.55
 -53332.018 -231714.84 763848.11
 -89561.853 -160188.46 778664.45
 -121583.92 -77408.287 786908.70
 -145796.06 8623.6294 786555.24
 -160188.46 89561.851 778664.45
 -163927.64 158361.69 766843.73
 -157867.31 210004.18 755629.64
 -147199.30 240196.73 748757.57
 -29580.438 -304531.17 739179.11
 -64663.574 -276289.31 747985.86
 -111972.86 -227695.59 758694.14
 -158361.69 -163927.64 766843.73
 -196150.89 -91079.366 770213.85
 -221197.67 -16302.292 768638.94
 -231714.84 53332.019 763848.11
 -227695.59 111972.86 758694.14
 -211627.61 155415.19 755685.04
 -192105.81 180281.35 755376.72
 -52676.937 -278132.01 748243.09
 -97336.635 -253379.12 752545.41
 -155415.19 -211627.61 755685.04
 -210004.18 -157867.31 755629.64
 -252222.23 -97661.806 752891.84
 -277886.61 -36958.694 749275.04
 -285665.34 18698.434 747024.55
 -276289.31 64663.575 747985.86
 -253379.12 97336.635 752545.41
 -227645.65 114426.84 758342.90
 -61354.292 -249174.03 757725.51
 -114426.84 -227645.65 758342.90
 -180281.35 -192105.81 755376.72
 -240196.73 -147199.30 748757.57
 -284986.91 -98001.934 741065.51
 -310814.56 -49382.148 735496.91
 -316887.53 -5604.5185 734541.28
 -304531.17 29580.437 739179.11
 -278132.01 52676.938 748243.09
 -249174.03 61354.293 757725.51
 181717.01 -120256.22 769751.50
 217091.53 -106721.63 762549.51
 254322.32 -79769.525 754292.37
 280381.78 -42921.548 748026.60
 290071.70 73.294613 745559.12
 281691.84 45797.302 747363.58
 255488.81 90848.393 752643.37
 213937.88 131449.95 759573.23
 163729.54 163264.24 765857.31
 120256.22 181717.01 769751.50
 163264.24 -163729.54 765857.31
 193758.84 -143516.98 762797.74
 226243.30 -108186.04 759677.40
 248727.47 -61569.267 757854.78
 256576.47 -7668.1923 757700.28
 248356.33 49326.471 758871.55
 224476.24 104999.14 760648.14
 187436.37 154723.78 762186.43
 143516.98 193758.84 762797.74
 106721.63 217091.53 762549.51
 131449.95 -213937.88 759573.23
 154723.78 -187436.37 762186.43
 179341.41 -142819.07 766445.94
 195852.37 -84947.896 770990.08
 200666.07 -18445.364 774204.69
 192788.37 51513.689 774712.19
 172754.10 119316.67 771958.26
 142819.07 179341.41 766445.94
 108186.04 226243.30 759677.40
 79769.525 254322.32 754292.37
 90848.394 -255488.81 752643.37
 104999.14 -224476.24 760648.14
 119316.67 -172754.10 771958.26
 127890.90 -106009.99 782563.61
 128637.01 -29528.407 789037.76
 121148.67 50633.509 789150.97
 106009.99 127890.90 782563.61
 84947.895 195852.37 770990.08
 61569.268 248727.47 757854.78
 42921.548 280381.78 748026.60
 45797.301 -281691.84 747363.58
 49326.473 -248356.33 758871.55
 51513.687 -192788.37 774712.19
 50633.511 -121148.67 789150.97
 46432.908 -39200.918 797688.71
 39200.920 46432.909 797688.71
 29528.406 128637.01 789037.76
 18445.365 200666.07 774204.69
 7668.1916 256576.47 757700.28
 -73.294338 290071.70 745559.12
 73.295480 -290071.70 745559.12
 -7668.1943 -256576.47 757700.28
 -18445.361 -200666.07 774204.69
 -29528.409 -128637.01 789037.76
 -39200.916 -46432.910 797688.71
 -46432.911 39200.918 797688.71
 -50633.507 121148.67 789150.97
 -51513.691 192788.37 774712.19
 -49326.470 248356.33 758871.55
 -45797.302 281691.84 747363.58
 -42921.549 -280381.78 748026.60
 -61569.266 -248727.48 757854.78
 -84947.898 -195852.37 770990.08
 -106009.99 -127890.90 782563.61
 -121148.67 -50633.509 789150.97
 -128637.01 29528.407 789037.76
 -127890.90 106009.99 782563.61
 -119316.67 172754.10 771958.26
 -104999.14 224476.24 760648.14
 -90848.393 255488.81 752643.37
 -79769.525 -254322.32 754292.37
 -108186.04 -226243.30 759677.40
 -142819.07 -179341.41 766445.94
 -172754.10 -119316.67 771958.26
 -192788.37 -51513.689 774712.19
 -200666.07 18445.363 774204.69
 -195852.37 84947.896 770990.08
 -179341.41 142819.07 766445.94
 -154723.78 187436.37 762186.43
 -131449.95 213937.88 759573.23
 -106721.63 -217091.53 762549.51
 -143516.98 -193758.84 762797.74
 -187436.37 -154723.78 762186.43
 -224476.24 -104999.14 760648.14
 -248356.33 -49326.472 758871.55
 -256576.47 7668.1932 757700.28
 -248727.47 61569.267 757854.78
 -226243.30 108186.04 759677.40
 -193758.84 143516.98 762797.74
 -163264.24 163729.54 765857.31
 -120256.22 -181717.01 769751.50
 -163729.54 -163264.24 765857.31
 -213937.88 -131449.95 759573.23
 -255488.81 -90848.394 752643.37
 -281691.84 -45797.301 747363.58
 -290071.70 -73.295093 745559.12
 -280381.78 42921.548 748026.60
 -254322.32 79769.526 754292.37
 -217091.53 106721.63 762549.51
 -181717.01 120256.22 769751.50
 120256.22 -181717.01 769751.50
 163729.54 -163264.24 765857.31
 213937.88 -131449.95 759573.23
 255488.81 -90848.394 752643.37
 281691.84 -45797.301 747363.58
 290071.70 -73.295401 745559.12
 280381.78 42921.548 748026.60
 254322.32 79769.525 754292.37
 217091.53 106721.63 762549.51
 181717.01 120256.22 769751.50
 106721.63 -217091.53 762549.51
 143516.98 -193758.84 762797.74
 187436.37 -154723.78 762186.43
 224476.24 -104999.14 760648.14
 248356.33 -49326.473 758871.55
 256576.47 7668.1937 757700.28
 248727.47 61569.267 757854.78
 226243.30 108186.04 759677.40
 193758.84 143516.98 762797.74
 163264.24 163729.54 765857.31
 79769.525 -254322.32 754292.37
 108186.04 -226243.30 759677.40
 142819.07 -179341.41 766445.94
 172754.10 -119316.67 771958.26
 192788.37 -51513.688 774712.19
 200666.07 18445.363 774204.69
 195852.37 84947.896 770990.08
 179341.41 142819.07 766445.94
 154723.78 187436.37 762186.43
 131449.95 213937.88 759573.23
 42921.548 -280381.78 748026.60
 61569.267 -248727.48 757854.78
 84947.895 -195852.37 770990.08
 106009.99 -127890.90 782563.61
 121148.67 -50633.510 789150.97
 128637.01 29528.408 789037.76
 127890.90 106009.99 782563.61
 119316.67 172754.10 771958.26
 104999.14 224476.24 760648.14
 90848.394 255488.81 752643.37
 -73.294792 -290071.70 745559.12
 7668.1922 -256576.47 757700.28
 18445.364 -200666.07 774204.69
 29528.406 -128637.01 789037.76
 39200.920 -46432.909 797688.71
 46432.908 39200.919 797688.71
 50633.511 121148.67 789150.97
 51513.687 192788.38 774712.19
 49326.474 248356.33 758871.55
 45797.301 281691.84 747363.58
 -45797.302 -281691.84 747363.58
 -49326.471 -248356.33 758871.55
 -51513.690 -192788.37 774712.19
 -50633.508 -121148.67 789150.97
 -46432.911 -39200.918 797688.71
 -39200.916 46432.909 797688.71
 -29528.409 128637.01 789037.76
 -18445.361 200666.07 774204.69
 -7668.1944 256576.47 757700.28
 73.295700 290071.70 745559.12
 -90848.394 -255488.81 752643.37
 -104999.14 -224476.24 760648.14
 -119316.67 -172754.10 771958.26
 -127890.90 -106009.99 782563.61
 -128637.01 -29528.407 789037.76
 -121148.67 50633.510 789150.97
 -106009.99 127890.90 782563.61
 -84947.898 195852.37 770990.08
 -61569.266 248727.47 757854.78
 -42921.549 280381.78 748026.60
 -131449.95 -213937.88 759573.23
 -154723.78 -187436.38 762186.43
 -179341.41 -142819.07 766445.94
 -195852.37 -84947.896 770990.08
 -200666.07 -18445.364 774204.69
 -192788.37 51513.689 774712.19
 -172754.10 119316.67 771958.26
 -142819.07 179341.41 766445.94
 -108186.04 226243.31 759677.40
 -79769.525 254322.32 754292.37
 -163264.24 -163729.54 765857.31
 -193758.84 -143516.98 762797.74
 -226243.30 -108186.04 759677.40
 -248727.47 -61569.267 757854.78
 -256576.47 -7668.1925 757700.28
 -248356.33 49326.472 758871.55
 -224476.24 104999.14 760648.14
 -187436.37 154723.78 762186.43
 -143516.98 193758.84 762797.74
 -106721.63 217091.53 762549.51
 -181717.01 -120256.22 769751.50
 -217091.53 -106721.63 762549.51
 -254322.32 -79769.525 754292.37
 -280381.78 -42921.548 748026.60
 -290071.70 73.294836 745559.12
 -281691.84 45797.302 747363.58
 -255488.81 90848.394 752643.37
 -213937.88 131449.95 759573.23
 -163729.54 163264.24 765857.31
 -120256.22 181717.01 769751.50
 61354.293 -249174.03 757725.51
 114426.84 -227645.65 758342.90
 180281.35 -192105.81 755376.72
 240196.73 -147199.30 748757.57
 284986.91 -98001.934 741065.51
 310814.57 -49382.148 735496.91
 316887.52 -5604.5185 734541.28
 304531.17 29580.438 739179.11
 278132.01 52676.938 748243.09
 249174.03 61354.293 757725.51
 52676.938 -278132.01 748243.09
 97336.635 -253379.12 752545.41
 155415.19 -211627.61 755685.04
 210004.18 -157867.31 755629.64
 252222.23 -97661.806 752891.84
 277886.61 -36958.694 749275.04
 285665.34 18698.434 747024.55
 276289.31 64663.576 747985.86
 253379.12 97336.635 752545.41
 227645.65 114426.84 758342.90
 29580.438 -304531.17 739179.11
 64663.575 -276289.31 747985.86
 111972.86 -227695.59 758694.14
 158361.69 -163927.64 766843.73
 196150.89 -91079.367 770213.85
 221197.67 -16302.291 768638.94
 231714.83 53332.020 763848.11
 227695.59 111972.86 758694.14
 211627.60 155415.19 755685.04
 192105.81 180281.35 755376.72
 -5604.5184 -316887.53 734541.28
 18698.434 -285665.34 747024.55
 53332.020 -231714.84 763848.11
 89561.852 -160188.46 778664.45
 121583.92 -77408.286 786908.70
 145796.06 8623.6296 786555.24
 160188.46 89561.851 778664.45
 163927.64 158361.70 766843.73
 157867.31 210004.18 755629.64
 147199.30 240196.74 748757.57
 -49382.148 -310814.56 735496.91
 -36958.694 -277886.61 749275.04
 -16302.292 -221197.67 768638.94
 8623.6299 -145796.06 786555.24
 34263.359 -57882.735 797167.24
 57882.737 34263.359 797167.24
 77408.285 121583.92 786908.70
 91079.368 196150.89 770213.85
 97661.805 252222.23 752891.84
 98001.934 284986.91 741065.51
 -98001.934 -284986.91 741065.51
 -97661.807 -252222.23 752891.84
 -91079.366 -196150.89 770213.85
 -77408.287 -121583.92 786908.70
 -57882.735 -34263.360 797167.24
 -34263.361 57882.736 797167.24
 -8623.6280 145796.06 786555.24
 16302.290 221197.67 768638.94
 36958.695 277886.61 749275.04
 49382.148 310814.57 735496.91
 -147199.30 -240196.73 748757.57
 -157867.31 -210004.19 755629.64
 -163927.64 -158361.69 766843.73
 -160188.46 -89561.852 778664.45
 -145796.06 -8623.6294 786555.24
 -121583.92 77408.285 786908.70
 -89561.853 160188.46 778664.45
 -53332.018 231714.83 763848.11
 -18698.434 285665.34 747024.55
 5604.5187 316887.53 734541.28
 -192105.81 -180281.35 755376.72
 -211627.61 -155415.19 755685.04
 -227695.59 -111972.86 758694.14
 -231714.84 -53332.020 763848.11
 -221197.67 16302.292 768638.94
 -196150.89 91079.367 770213.85
 -158361.69 163927.64 766843.73
 -111972.86 227695.59 758694.14
 -64663.575 276289.31 747985.86
 -29580.438 304531.17 739179.11
 -227645.65 -114426.84 758342.90
 -253379.12 -97336.636 752545.41
 -276289.31 -64663.575 747985.86
 -285665.34 -18698.434 747024.55
 -277886.61 36958.694 749275.04
 -252222.23 97661.806 752891.84
 -210004.18 157867.32 755629.64
 -155415.19 211627.60 755685.04
 -97336.636 253379.12 752545.41
 -52676.938 278132.01 748243.09
 -249174.03 -61354.293 757725.51
 -278132.01 -52676.938 748243.09
 -304531.17 -29580.438 739179.11
 -316887.53 5604.5183 734541.28
 -310814.57 49382.148 735496.91
 -284986.91 98001.934 741065.51
 -240196.74 147199.30 748757.57
 -180281.35 192105.81 755376.72
 -114426.84 227645.65 758342.90
 -61354.293 249174.03 757725.51
 1819.6726 -321797.47 732422.74
 65176.039 -301350.19 738200.62
 148877.89 -265864.86 739696.73
 230069.87 -218190.81 734479.83
 295938.21 -164030.90 724923.75
 340529.29 -110097.59 715484.68
 362376.43 -62431.278 710482.69
 362780.67 -25793.547 712548.16
 345795.27 -3835.0105 721395.12
 321797.47 1819.6726 732422.74
 -3835.0105 -345795.27 721395.12
 49883.591 -323569.86 729941.21
 125038.74 -282770.65 737838.79
 200955.69 -226249.02 740559.38
 264993.07 -160118.43 737658.97
 310378.22 -92511.729 731510.04
 334570.63 -31324.533 726003.63
 337921.58 17378.165 724918.62
 323569.86 49883.591 729941.21
 301350.19 65176.039 738200.62
 -25793.547 -362780.67 712548.16
 17378.165 -337921.58 724918.62
 80780.209 -290832.99 740871.60
 148226.55 -223912.96 753586.01
 208407.78 -143590.45 758912.37
 254179.83 -59614.625 756200.18
 281934.32 17793.337 748462.71
 290832.99 80780.209 740871.60
 282770.65 125038.74 737838.78
 265864.86 148877.89 739696.73
 -62431.278 -362376.43 710482.69
 -31324.533 -334570.64 726003.62
 17793.337 -281934.32 748462.71
 73933.616 -206385.16 769375.71
 128128.20 -114354.93 781348.91
 173715.31 -16815.415 780730.58
 206385.16 73933.616 769375.71
 223912.96 148226.55 753586.01
 226249.02 200955.69 740559.38
 218190.81 230069.87 734479.83
 -110097.59 -340529.29 715484.68
 -92511.729 -310378.22 731510.04
 -59614.625 -254179.83 756200.18
 -16815.415 -173715.31 780730.58
 29930.822 -75194.975 795895.63
 75194.974 29930.823 795895.63
 114354.94 128128.20 781348.91
 143590.45 208407.78 758912.37
 160118.43 264993.07 737658.97
 164030.90 295938.21 724923.75
 -164030.90 -295938.21 724923.75
 -160118.43 -264993.07 737658.97
 -143590.45 -208407.78 758912.37
 -114354.93 -128128.20 781348.91
 -75194.974 -29930.822 795895.63
 -29930.822 75194.973 795895.64
 16815.414 173715.31 780730.58
 59614.626 254179.83 756200.18
 92511.729 310378.22 731510.04
 110097.59 340529.29 715484.68
 -218190.81 -230069.87 734479.83
 -226249.02 -200955.69 740559.38
 -223912.96 -148226.55 753586.01
 -206385.16 -73933.615 769375.71
 -173715.31 16815.414 780730.58
 -128128.20 114354.94 781348.91
 -73933.615 206385.16 769375.71
 -17793.338 281934.32 748462.71
 31324.533 334570.63 726003.63
 62431.278 362376.43 710482.69
 -265864.86 -148877.89 739696.73
 -282770.65 -125038.75 737838.78
 -290832.99 -80780.208 740871.60
 -281934.32 -17793.338 748462.71
 -254179.83 59614.626 756200.18
 -208407.78 143590.45 758912.37
 -148226.55 223912.96 753586.01
 -80780.208 290832.99 740871.60
 -17378.165 337921.58 724918.62
 25793.547 362780.67 712548.16
 -301350.19 -65176.040 738200.62
 -323569.86 -49883.590 729941.21
 -337921.58 -17378.165 724918.62
 -334570.63 31324.533 726003.63
 -310378.22 92511.729 731510.04
 -264993.07 160118.43 737658.97
 -200955.69 226249.01 740559.38
 -125038.75 282770.65 737838.78
 -49883.591 323569.86 729941.21
 3835.0103 345795.27 721395.12
 -321797.47 -1819.6725 732422.74
 -345795.27 3835.0101 721395.12
 -362780.67 25793.547 712548.16
 -362376.43 62431.278 710482.69
 -340529.29 110097.59 715484.68
 -295938.21 164030.90 724923.75
 -230069.87 218190.81 734479.83
 -148877.89 265864.86 739696.73
 -65176.040 301350.19 738200.62
 -1819.6728 321797.47 732422.74
 -56433.182 -392016.45 695081.58
 16871.990 -378354.31 704672.51
 118176.80 -348282.06 710446.23
 220671.60 -301197.69 707519.61
 307721.42 -243073.19 697296.89
 370801.88 -182829.81 684893.59
 407636.96 -128932.30 676172.00
 419851.59 -87635.827 675310.74
 411630.01 -62946.429 683080.14
 392016.45 -56433.182 695081.58
 -62946.429 -411630.01 683080.14
 812.54839 -397420.82 694302.55
 94523.671 -362919.43 706650.38
 193584.83 -306927.28 712966.03
 281255.70 -235497.73 710940.26
 347438.42 -159342.63 702777.68
 388062.44 -89681.479 693804.57
 403579.49 -34850.210 689861.63
 397420.82 812.54855 694302.55
 378354.31 16871.990 704672.51
 -87635.827 -419851.59 675310.75
 -34850.210 -403579.49 689861.62
 47239.036 -363175.51 711246.81
 139187.11 -296118.32 730028.00
 225614.25 -208196.91 738750.47
 295114.35 -112291.27 735049.79
 341381.70 -23393.435 723126.05
 363175.51 47239.036 711246.81
 362919.43 94523.670 706650.38
 348282.06 118176.80 710446.23
 -128932.30 -407636.96 676172.00
 -89681.479 -388062.43 693804.57
 -23393.436 -341381.70 723126.05
 56754.709 -264007.12 753046.58
 138418.52 -161301.26 771247.18
 210248.05 -48126.461 770376.27
 264007.12 56754.709 753046.58
 296118.32 139187.11 730028.00
 306927.28 193584.83 712966.03
 301197.69 220671.60 707519.61
 -182829.81 -370801.88 684893.59
 -159342.63 -347438.42 702777.68
 -112291.27 -295114.34 735049.79
 -48126.462 -210248.05 770376.27
 25186.192 -98107.179 793561.99
 98107.180 25186.191 793561.99
 161301.26 138418.52 771247.18
 208196.91 225614.25 738750.47
 235497.73 281255.70 710940.26
 243073.19 307721.42 697296.89
 -243073.19 -307721.42 697296.89
 -235497.73 -281255.70 710940.26
 -208196.91 -225614.25 738750.47
 -161301.26 -138418.52 771247.18
 -98107.180 -25186.192 793561.99
 -25186.191 98107.181 793561.99
 48126.462 210248.05 770376.27
 112291.27 295114.35 735049.79
 159342.63 347438.42 702777.68
 182829.81 370801.88 684893.59
 -301197.69 -220671.60 707519.61
 -306927.28 -193584.83 712966.03
 -296118.32 -139187.11 730028.00
 -264007.12 -56754.709 753046.58
 -210248.05 48126.463 770376.27
 -138418.52 161301.26 771247.18
 -56754.709 264007.12 753046.57
 23393.436 341381.70 723126.05
 89681.479 388062.44 693804.57
 128932.30 407636.96 676172.00
 -348282.06 -118176.80 710446.23
 -362919.43 -94523.669 706650.38
 -363175.51 -47239.037 711246.81
 -341381.70 23393.436 723126.05
 -295114.34 112291.27 735049.79
 -225614.25 208196.91 738750.47
 -139187.11 296118.32 730028.00
 -47239.036 363175.51 711246.81
 34850.210 403579.49 689861.62
 87635.827 419851.59 675310.74
 -378354.31 -16871.989 704672.51
 -397420.82 -812.54903 694302.55
 -403579.49 34850.211 689861.62
 -388062.44 89681.479 693804.57
 -347438.42 159342.63 702777.68
 -281255.70 235497.72 710940.26
 -193584.83 306927.28 712966.03
 -94523.671 362919.43 706650.38
 -812.54853 397420.82 694302.55
 62946.429 411630.01 683080.14
 -392016.45 56433.182 695081.58
 -411630.01 62946.429 683080.14
 -419851.59 87635.827 675310.74
 -407636.96 128932.30 676172.00
 -370801.88 182829.81 684893.59
 -307721.42 243073.19 697296.89
 -220671.60 301197.69 707519.61
 -118176.80 348282.06 710446.23
 -16871.990 378354.31 704672.51
 56433.182 392016.45 695081.58
 -102136.53 -445894.09 656312.87
 -19105.568 -442066.02 666492.77
 94646.638 -419490.64 674588.48
 211717.20 -375425.58 673966.95
 313725.40 -315731.61 664748.02
 390223.06 -250812.59 651781.41
 438140.27 -191146.09 641479.75
 459544.11 -144318.64 638742.00