# OOMMF OVF 2.0
#
# Segment count: 1
#
# Begin: Segment
# Begin: Header
#
# Title: Oxs_MinDriver::Magnetization
# Desc: Oxs vector field output
# Desc:  MIF source file: /home/ryan/Git/joommf/tools/omfvis/cube_example.mif
# Desc:  Iteration: 2724, State id: 5614
# Desc:  Stage: 6, Stage iteration: 80
# Desc:  Stage simulation time: 0 s
# Desc:  Total simulation time: -2 s
# meshunit: m
# meshtype: rectangular
# xbase: 2.5000000000000001e-09
# ybase: 2.5000000000000001e-09
# zbase: 2.5000000000000001e-09
# xnodes: 10
# ynodes: 10
# znodes: 10
# xstepsize: 5.0000000000000001e-09
# ystepsize: 5.0000000000000001e-09
# zstepsize: 5.0000000000000001e-09
# xmin: 0
# ymin: 0
# zmin: 0
# xmax: 4.9999999999999998e-08
# ymax: 4.9999999999999998e-08
# zmax: 4.9999999999999998e-08
# valuedim: 3
# valuelabels: Magnetization_x Magnetization_y Magnetization_z
# valueunits: A/m A/m A/m
#
# End: Header
#
# Begin: Data Text
 655248.51 -250709.31 384440.15
 697201.89 -202158.99 336216.11
 731652.17 -117084.57 301622.78
 745270.33 -7317.4628 290720.81
 732272.05 119287.25 299246.06
 688043.38 254940.67 318749.99
 609603.10 389137.58 341988.31
 498277.77 509372.96 363673.54
 366327.34 601938.16 378780.59
 250709.29 655248.58 384440.05
 601938.09 -366327.36 378780.67
 653463.99 -306610.79 344927.00
 701274.45 -203633.30 326722.54
 725817.14 -66229.023 329853.29
 715128.58 97835.528 344991.77
 661310.07 272974.17 357986.17
 565694.07 435567.91 360930.48
 440233.26 565791.71 355069.60
 306610.76 653464.06 344926.91
 202158.96 697201.94 336216.01
 509372.89 -498277.81 363673.60
 565791.63 -440233.31 355069.67
 626533.20 -330075.51 372164.35
 665440.76 -165206.65 412183.65
 658308.25 51805.993 451604.23
 588866.09 288762.63 458097.01
 468694.20 490427.70 424035.88
 330075.46 626533.29 372164.26
 203633.26 701274.51 326722.44
 117084.55 731652.22 301622.68
 389137.50 -609603.13 341988.35
 435567.81 -565694.12 360930.53
 490427.57 -468694.26 424035.95
 528583.25 -294891.11 523105.13
 516190.60 -26631.882 610604.63
 428944.78 284614.06 612373.43
 294891.03 528583.39 523105.03
 165206.59 665440.84 412183.53
 66228.986 725817.20 329853.18
 7317.4443 745270.37 290720.70
 254940.58 -688043.41 318750.00
 272974.06 -661310.10 357986.19
 288762.47 -588866.14 458097.04
 284613.86 -428944.85 612373.47
 235510.72 -135040.53 752528.24
 135040.45 235510.96 752528.18
 26631.815 516190.75 610604.50
 -51806.034 658308.34 451604.10
 -97835.547 715128.63 344991.66
 -119287.25 732272.09 299245.95
 119287.15 -732272.06 299246.05
 97835.409 -715128.60 344991.77
 51805.833 -658308.28 451604.21
 -26632.091 -516190.63 610604.59
 -135040.78 -235510.78 752528.18
 -235511.02 135040.70 752528.12
 -284614.09 428944.94 612373.30
 -288762.64 588866.18 458096.89
 -272974.17 661310.13 357986.06
 -254940.66 688043.43 318749.89
 -7317.5536 -745270.34 290720.78
 -66229.133 -725817.15 329853.26
 -165206.79 -665440.76 412183.59
 -294891.27 -528583.26 523105.04
 -428945.02 -284613.89 612373.34
 -516190.79 26632.023 610604.46
 -528583.40 294891.19 523104.94
 -490427.68 468694.30 424035.78
 -435567.89 565694.15 360930.39
 -389137.56 609603.16 341988.22
 -117084.66 -731652.17 301622.75
 -203633.41 -701274.45 326722.49
 -330075.62 -626533.19 372164.28
 -468694.37 -490427.56 424035.85
 -588866.24 -288762.48 458096.91
 -658308.37 -51805.874 451604.08
 -665440.84 165206.73 412183.48
 -626533.27 330075.56 372164.19
 -565791.68 440233.35 355069.53
 -509372.94 498277.86 363673.47
 -202159.08 -697201.88 336216.07
 -306610.89 -653463.98 344926.94
 -440233.40 -565791.60 355069.60
 -565694.20 -435567.79 360930.44
 -661310.16 -272974.05 357986.08
 -715128.65 -97835.429 344991.65
 -725817.20 66229.097 329853.15
 -701274.50 203633.36 326722.39
 -653464.04 306610.85 344926.85
 -601938.14 366327.43 378780.53
 -250709.41 -655248.50 384440.10
 -366327.46 -601938.07 378780.61
 -498277.89 -509372.86 363673.53
 -609603.20 -389137.48 341988.26
 -688043.46 -254940.57 318749.90
 -732272.11 -119287.16 299245.95
 -745270.38 7317.5352 290720.68
 -731652.22 117084.64 301622.65
 -697201.94 202159.05 336215.97
 -655248.57 250709.39 384440.00
 625277.96 -284229.25 410172.17
 672196.83 -232911.34 365928.58
 713519.15 -148069.44 330099.78
 733991.87 -41498.409 315489.81
 728850.81 80268.526 319896.01
 694252.80 211709.54 336440.37
 626351.05 344769.23 358912.99
 524207.92 468071.68 382249.86
 397752.98 566700.15 400803.58
 284229.24 625278.04 410172.06
 566700.07 -397753.00 400803.68
 622757.02 -333945.13 375039.12
 676230.86 -231163.70 359548.57
 706562.90 -97864.732 362203.48
 703823.67 59838.204 375568.42
 661171.70 229812.73 387347.52
 577736.52 392262.34 390321.36
 461938.91 527648.19 384967.30
 333945.11 622757.10 375039.01
 232911.32 672196.90 365928.47
 468071.60 -524207.94 382249.94
 527648.11 -461938.94 384967.39
 591083.49 -351479.67 408757.08
 632736.76 -191216.26 450644.58
 633248.83 16001.661 488610.13
 579553.77 243720.12 494689.72
 477499.04 445887.56 461713.06
 351479.63 591083.59 408756.98
 231163.67 676230.93 359548.46
 148069.42 713519.21 330099.66
 344769.15 -626351.07 358913.05
 392262.24 -577736.55 390321.42
 445887.44 -477499.09 461713.13
 482360.86 -305452.62 560380.84
 476891.16 -51644.034 640240.36
 412811.53 239833.81 641923.97
 305452.57 482361.01 560380.75
 191216.22 632736.85 450644.47
 97864.704 706562.97 362203.36
 41498.393 733991.92 315489.70
 211709.46 -694252.81 336440.40
 229812.62 -661171.71 387347.55
 243719.98 -579553.81 494689.76
 239833.62 -412811.58 641924.01
 203922.23 -133589.47 761951.17
 133589.42 203922.45 761951.12
 51643.991 476891.32 640240.25
 -16001.690 633248.93 488610.01
 -59838.219 703823.73 375568.30
 -80268.532 728850.86 319895.90
 80268.442 -728850.82 319896.02
 59838.095 -703823.67 375568.42
 16001.515 -633248.84 488610.12
 -51644.221 -476891.18 640240.33
 -133589.68 -203922.26 761951.12
 -203922.48 133589.64 761951.07
 -239833.83 412811.69 641923.86
 -243720.13 579553.88 494689.60
 -229812.72 661171.76 387347.40
 -211709.54 694252.85 336440.26
 -41498.491 -733991.87 315489.80
 -97864.833 -706562.90 362203.46
 -191216.38 -632736.75 450644.54
 -305452.77 -482360.86 560380.77
 -412811.74 -239833.64 641923.90
 -476891.33 51644.180 640240.22
 -482361.01 305452.72 560380.67
 -445887.55 477499.15 461712.96
 -392262.32 577736.60 390321.27
 -344769.21 626351.12 358912.90
 -148069.52 -713519.14 330099.75
 -231163.79 -676230.84 359548.53
 -351479.77 -591083.47 408757.02
 -477499.19 -445887.42 461713.04
 -579553.91 -243719.98 494689.64
 -633248.94 -16001.546 488610.00
 -632736.85 191216.34 450644.42
 -591083.57 351479.73 408756.92
 -527648.17 461939.00 384967.23
 -468071.65 524208.00 382249.79
 -232911.43 -672196.82 365928.54
 -333945.22 -622757.01 375039.07
 -461939.03 -527648.09 384967.31
 -577736.62 -392262.22 390321.33
 -661171.78 -229812.62 387347.44
 -703823.74 -59838.109 375568.30
 -706562.96 97864.804 362203.34
 -676230.92 231163.76 359548.42
 -622757.08 333945.20 375038.96
 -566700.13 397753.07 400803.52
 -284229.35 -625277.94 410172.12
 -397753.09 -566700.05 400803.62
 -524208.02 -468071.57 382249.86
 -626351.13 -344769.13 358912.95
 -694252.86 -211709.45 336440.29
 -728850.87 -80268.448 319895.91
 -733991.92 41498.475 315489.69
 -713519.20 148069.50 330099.64
 -672196.89 232911.41 365928.43
 -625278.02 284229.34 410172.01
 582902.58 -331382.85 436359.92
 637157.85 -275874.78 397395.25
 687607.70 -188553.00 362826.98
 716833.62 -82625.394 345431.04
 720825.53 35589.661 345172.33
 697091.07 162284.40 357390.28
 642009.50 292088.56 377502.42
 553241.31 415817.12 401273.19
 438111.71 518827.75 422937.23
 331382.86 582902.67 436359.80
 518827.67 -438111.70 422937.34
 580103.09 -371963.60 406353.90
 641287.31 -268061.41 396098.05
 679872.42 -136888.38 398792.01
 687204.28 15130.282 409293.73
 658070.34 178546.01 418407.40
 590542.56 338276.77 420509.59
 489530.10 477124.54 415586.88
 371963.60 580103.17 406353.78
 275874.79 637157.93 397395.12
 415817.04 -553241.30 401273.29
 477124.45 -489530.10 415586.98
 544427.25 -378295.93 447762.39
 591492.74 -221228.26 491115.45
 602212.35 -23643.915 526100.04
 566566.58 192632.46 530937.89
 486448.32 391733.07 499913.22
 378295.92 544427.35 447762.28
 268061.40 641287.39 396097.93
 188553.00 687607.77 362826.85
 292088.48 -642009.49 377502.49
 338276.67 -590542.56 420509.66
 391732.96 -486448.33 499913.30
 430245.64 -315565.59 596076.38
 435155.25 -76333.322 666943.13
 394704.02 193918.92 668284.51
 315565.58 430245.78 596076.28
 221228.25 591492.85 491115.34
 136888.37 679872.49 398791.88
 82625.389 716833.68 345430.91
 162284.32 -697091.06 357390.33
 178545.91 -658070.33 418407.45
 192632.33 -566566.58 530937.94
 193918.76 -394704.03 668284.56
 174247.64 -131773.24 769593.12
 131773.24 174247.83 769593.08
 76333.316 435155.40 666943.03
 23643.908 602212.45 526099.92
 -15130.286 687204.35 409293.61
 -35589.660 720825.58 345172.21
 35589.588 -720825.52 345172.35
 15130.187 -687204.26 409293.75
 -23644.040 -602212.34 526100.05
 -76333.481 -435155.24 666943.11
 -131773.42 -174247.64 769593.09
 -174247.82 131773.42 769593.05
 -193918.91 394704.17 668284.43
 -192632.46 566566.68 530937.79
 -178546.00 658070.41 418407.29
 -162284.39 697091.13 357390.17
 -82625.466 -716833.61 345431.04
 -136888.46 -679872.40 398792.01
 -221228.37 -591492.72 491115.43
 -315565.72 -430245.62 596076.32
 -394704.17 -193918.75 668284.47
 -435155.39 76333.472 666943.02
 -430245.76 315565.71 596076.23
 -391733.05 486448.42 499913.14
 -338276.75 590542.64 420509.50
 -292088.54 642009.56 377502.33
 -188553.07 -687607.68 362826.97
 -268061.49 -641287.29 396098.03
 -378296.02 -544427.23 447762.34
 -486448.43 -391732.94 499913.22
 -566566.68 -192632.33 530937.83
 -602212.44 23644.035 526099.93
 -591492.82 221228.36 491115.31
 -544427.33 378296.01 447762.23
 -477124.51 489530.18 415586.82
 -415817.10 553241.38 401273.12
 -275874.86 -637157.83 397395.22
 -371963.68 -580103.06 406353.86
 -489530.18 -477124.42 415586.92
 -590542.64 -338276.66 420509.57
 -658070.41 -178545.90 418407.34
 -687204.34 -15130.192 409293.63
 -679872.48 136888.45 398791.88
 -641287.37 268061.48 396097.90
 -580103.15 371963.68 406353.74
 -518827.72 438111.79 422937.17
 -331382.94 -582902.56 436359.89
 -438111.78 -518827.64 422937.29
 -553241.37 -415817.02 401273.21
 -642009.56 -292088.46 377502.40
 -697091.12 -162284.31 357390.22
 -720825.57 -35589.586 345172.24
 -716833.67 82625.460 345430.92
 -687607.75 188553.07 362826.84
 -637157.91 275874.86 397395.09
 -582902.65 331382.95 436359.76
 534271.13 -382085.16 456689.48
 597863.04 -321968.06 422961.41
 659032.70 -230335.36 390668.05
 697938.64 -122427.60 371339.65
 711035.53 -5469.7060 366604.09
 697386.82 117354.37 374004.77
 654524.38 242654.90 390789.50
 579945.48 363657.88 414024.37
 478887.98 467311.05 438505.06
 382085.20 534271.22 456689.34
 467310.97 -478887.94 438505.19
 534806.81 -411466.75 429740.38
 605082.09 -305574.42 424852.84
 653221.19 -174043.74 427797.67
 670844.94 -25071.456 435130.43
 654263.17 132841.27 440786.69
 601837.78 288213.61 441275.65
 516424.82 427092.08 436918.48
 411466.78 534806.89 429740.25
 321968.08 597863.13 422961.27
 363657.81 -579945.45 414024.49
 427091.99 -516424.79 436918.60
 499697.17 -404555.08 476065.04
 554284.90 -248799.48 520448.91
 575791.82 -57567.165 552403.66
 556006.39 149451.47 555446.80
 495204.74 343667.81 525989.26
 404555.10 499697.26 476064.93
 305574.44 605082.17 424852.72
 230335.38 659032.77 390667.91
 242654.83 -654524.35 390789.60
 288213.53 -601837.75 441275.74
 343667.71 -495204.72 525989.35
 387537.42 -325199.01 619726.02
 403577.28 -96253.464 684003.40
 381971.56 158395.46 684842.03
 325199.04 387537.54 619725.94
 248799.49 554285.00 520448.80
 174043.76 653221.27 427797.55
 122427.61 697938.71 371339.52
 117354.31 -697386.79 374004.84
 132841.18 -654263.14 440786.76
 149451.37 -556006.36 555446.86
 158395.33 -381971.52 684842.08
 153274.17 -131309.67 774121.95
 131309.71 153274.32 774121.92
 96253.493 403577.41 684003.32
 57567.186 575791.91 552403.56
 25071.472 670845.01 435130.32
 5469.7187 711035.59 366603.98
 -5469.7666 -711035.50 366604.14
 -25071.532 -670844.91 435130.47
 -57567.269 -575791.78 552403.69
 -96253.591 -403577.24 684003.40
 -131309.81 -153274.13 774121.94
 -153274.28 131309.85 774121.90
 -158395.42 381971.68 684841.97
 -149451.44 556006.49 555446.71
 -132841.24 654263.24 440786.59
 -117354.36 697386.88 374004.67
 -122427.66 -697938.61 371339.68
 -174043.82 -653221.16 427797.69
 -248799.57 -554284.86 520448.91
 -325199.13 -387537.38 619725.99
 -381971.64 -158395.29 684842.02
 -403577.37 96253.622 684003.32
 -387537.50 325199.15 619725.90
 -343667.78 495204.83 525989.19
 -288213.58 601837.85 441275.58
 -242654.87 654524.44 390789.42
 -230335.43 -659032.67 390668.06
 -305574.49 -605082.06 424852.84
 -404555.16 -499697.13 476065.01
 -495204.81 -343667.67 525989.29
 -556006.45 -149451.34 555446.78
 -575791.88 57567.289 552403.59
 -554284.96 248799.59 520448.79
 -499697.22 404555.18 476064.90
 -427092.04 516424.89 436918.43
 -363657.85 579945.55 414024.31
 -321968.12 -597863.01 422961.40
 -411466.82 -534806.77 429740.35
 -516424.86 -427091.96 436918.55
 -601837.82 -288213.50 441275.67
 -654263.21 -132841.16 440786.66
 -670844.98 25071.549 435130.36
 -653221.24 174043.83 427797.57
 -605082.14 305574.51 424852.71
 -534806.86 411466.85 429740.22
 -467311.02 478888.05 438505.02
 -382085.24 -534271.10 456689.46
 -478888.01 -467310.93 438505.15
 -579945.51 -363657.78 414024.42
 -654524.41 -242654.80 390789.51
 -697386.85 -117354.29 374004.74
 -711035.56 5469.7790 366604.03
 -697938.68 122427.67 371339.55
 -659032.74 230335.44 390667.92
 -597863.10 321968.15 422961.26
 -534271.19 382085.28 456689.32
 483626.01 -432888.82 467667.77
 557860.50 -368727.61 439125.97
 631167.45 -272125.10 409359.96
 680694.67 -160384.51 388499.13
 702963.56 -42382.625 379533.85
 698527.50 78314.302 382002.88
 666523.02 199315.53 394994.15
 605168.07 315814.56 417172.35
 518442.58 416872.30 444336.34
 432888.89 483626.10 467667.63
 416872.23 -518442.52 444336.48
 491394.82 -450759.21 441981.07
 572054.58 -342819.18 441846.77
 630960.64 -209144.52 445137.32
 659048.47 -60305.209 449464.56
 653698.90 94565.121 451370.34
 614295.96 245821.11 449680.39
 543070.82 382408.03 445912.75
 450759.27 491394.89 441980.93
 368727.66 557860.58 439125.82
 315814.50 -605168.01 417172.48
 382407.97 -543070.77 445912.87
 462048.59 -431314.34 490386.62
 526121.85 -275473.34 536013.29
 558850.21 -86605.108 565849.80
 552560.29 115431.89 566879.71
 507216.31 305622.80 537890.62
 431314.40 462048.67 490386.50
 342819.23 572054.65 441846.64
 272125.13 631167.53 409359.82
 199315.48 -666522.97 394994.26
 245821.05 -614295.90 449680.50
 305622.72 -507216.25 537890.72
 357382.30 -337808.65 631001.75
 384788.27 -113740.20 692099.09
 378062.22 132953.88 692381.56
 337808.71 357382.39 631001.67
 275473.39 526121.93 536013.18
 209144.56 630960.71 445137.20
 160384.54 680694.73 388499.01
 78314.254 -698527.45 382002.98
 94565.065 -653698.85 451370.43
 115431.81 -552560.23 566879.79
 132953.79 -378062.15 692381.62
 140408.96 -133688.19 776152.56
 133688.26 140409.07 776152.52
 113740.26 384788.37 692099.03
 86605.159 558850.30 565849.71
 60305.246 659048.54 449464.46
 42382.654 702963.62 379533.75
 -42382.669 -702963.52 379533.92
 -60305.270 -659048.42 449464.63
 -86605.185 -558850.15 565849.85
 -113740.30 -384788.20 692099.11
 -133688.30 -140408.89 776152.55
 -140409.00 133688.37 776152.52
 -132953.82 378062.32 692381.52
 -115431.84 552560.37 566879.64
 -94565.081 653698.96 451370.26
 -78314.270 698527.55 382002.79
 -160384.56 -680694.63 388499.18
 -209144.58 -630960.60 445137.36
 -275473.42 -526121.79 536013.30
 -337808.73 -357382.23 631001.74
 -378062.25 -132953.72 692381.57
 -384788.30 113740.36 692099.05
 -357382.33 337808.79 631001.66
 -305622.74 507216.39 537890.58
 -245821.07 614296.02 449680.33
 -199315.50 666523.07 394994.08
 -272125.15 -631167.41 409359.99
 -342819.24 -572054.53 441846.78
 -431314.41 -462048.54 490386.61
 -507216.33 -305622.66 537890.68
 -552560.31 -115431.76 566879.72
 -558850.24 86605.236 565849.75
 -526121.87 275473.47 536013.20
 -462048.62 431314.46 490386.49
 -382407.98 543070.88 445912.72
 -315814.52 605168.13 417172.30
 -368727.67 -557860.45 439125.97
 -450759.27 -491394.78 441981.06
 -543070.83 -382407.92 445912.84
 -614295.97 -245821.01 449680.44
 -653698.91 -94565.023 451370.34
 -659048.49 60305.307 449464.53
 -630960.67 209144.61 445137.24
 -572054.61 342819.29 441846.65
 -491394.85 450759.32 441980.92
 -416872.25 518442.64 444336.31
 -432888.88 -483625.97 467667.77
 -518442.57 -416872.18 444336.45
 -605168.07 -315814.46 417172.43
 -666523.02 -199315.45 394994.19
 -698527.51 -78314.223 382002.89
 -702963.58 42382.699 379533.82
 -680694.69 160384.59 388499.06
 -631167.49 272125.19 409359.85
 -557860.53 368727.72 439125.83
 -483626.05 432888.95 467667.62
 432888.88 -483625.97 467667.77
 518442.57 -416872.18 444336.45
 605168.07 -315814.46 417172.43
 666523.02 -199315.45 394994.19
 698527.51 -78314.223 382002.89
 702963.58 42382.698 379533.82
 680694.69 160384.59 388499.06
 631167.49 272125.18 409359.85
 557860.53 368727.72 439125.83
 483626.05 432888.95 467667.62
 368727.67 -557860.45 439125.97
 450759.27 -491394.78 441981.06
 543070.83 -382407.92 445912.84
 614295.97 -245821.01 449680.44
 653698.91 -94565.023 451370.34
 659048.49 60305.308 449464.52
 630960.67 209144.61 445137.24
 572054.61 342819.29 441846.65
 491394.85 450759.32 441980.92
 416872.25 518442.64 444336.31
 272125.15 -631167.41 409359.99
 342819.24 -572054.53 441846.78
 431314.41 -462048.54 490386.60
 507216.33 -305622.67 537890.68
 552560.31 -115431.76 566879.72
 558850.24 86605.236 565849.76
 526121.87 275473.47 536013.20
 462048.62 431314.46 490386.49
 382407.98 543070.88 445912.72
 315814.52 605168.13 417172.30
 160384.56 -680694.63 388499.18
 209144.58 -630960.60 445137.36
 275473.41 -526121.79 536013.31
 337808.74 -357382.23 631001.74
 378062.25 -132953.72 692381.57
 384788.30 113740.36 692099.05
 357382.33 337808.80 631001.66
 305622.74 507216.38 537890.58
 245821.07 614296.02 449680.33
 199315.50 666523.07 394994.08
 42382.671 -702963.52 379533.92
 60305.268 -659048.42 449464.63
 86605.187 -558850.15 565849.84
 113740.30 -384788.20 692099.11
 133688.30 -140408.89 776152.55
 140409.00 133688.37 776152.52
 132953.82 378062.32 692381.52
 115431.84 552560.37 566879.64
 94565.083 653698.96 451370.26
 78314.269 698527.55 382002.79
 -78314.255 -698527.45 382002.98
 -94565.062 -653698.85 451370.43
 -115431.81 -552560.23 566879.79
 -132953.79 -378062.15 692381.62
 -140408.96 -133688.19 776152.56
 -133688.26 140409.07 776152.52
 -113740.27 384788.37 692099.02
 -86605.157 558850.30 565849.71
 -60305.248 659048.54 449464.46
 -42382.653 702963.62 379533.75
 -199315.48 -666522.97 394994.26
 -245821.05 -614295.90 449680.50
 -305622.72 -507216.25 537890.72
 -357382.30 -337808.65 631001.75
 -384788.27 -113740.20 692099.09
 -378062.22 132953.88 692381.56
 -337808.70 357382.39 631001.67
 -275473.39 526121.93 536013.18
 -209144.56 630960.71 445137.20
 -160384.54 680694.73 388499.01
 -315814.50 -605168.01 417172.48
 -382407.96 -543070.77 445912.87
 -462048.59 -431314.34 490386.62
 -526121.84 -275473.34 536013.29
 -558850.21 -86605.108 565849.80
 -552560.29 115431.89 566879.71
 -507216.31 305622.80 537890.62
 -431314.39 462048.67 490386.50
 -342819.23 572054.65 441846.64
 -272125.13 631167.53 409359.82
 -416872.23 -518442.52 444336.48
 -491394.82 -450759.21 441981.07
 -572054.58 -342819.18 441846.77
 -630960.64 -209144.52 445137.32
 -659048.47 -60305.210 449464.56
 -653698.90 94565.121 451370.34
 -614295.96 245821.11 449680.40
 -543070.82 382408.03 445912.75
 -450759.27 491394.89 441980.93
 -368727.66 557860.58 439125.82
 -483626.01 -432888.82 467667.77
 -557860.50 -368727.61 439125.97
 -631167.45 -272125.10 409359.96
 -680694.67 -160384.51 388499.13
 -702963.56 -42382.624 379533.85
 -698527.50 78314.301 382002.88
 -666523.02 199315.53 394994.15
 -605168.07 315814.56 417172.35
 -518442.58 416872.30 444336.34
 -432888.89 483626.10 467667.63
 382085.24 -534271.10 456689.46
 478888.01 -467310.93 438505.15
 579945.51 -363657.78 414024.42
 654524.41 -242654.80 390789.51
 697386.85 -117354.29 374004.74
 711035.56 5469.7793 366604.03
 697938.68 122427.67 371339.55
 659032.74 230335.44 390667.92
 597863.10 321968.15 422961.26
 534271.19 382085.28 456689.32
 321968.12 -597863.01 422961.40
 411466.82 -534806.78 429740.35
 516424.87 -427091.96 436918.55
 601837.82 -288213.50 441275.67
 654263.21 -132841.16 440786.66
 670844.98 25071.549 435130.36
 653221.24 174043.83 427797.57
 605082.14 305574.51 424852.71
 534806.86 411466.85 429740.22
 467311.01 478888.05 438505.02
 230335.43 -659032.67 390668.06
 305574.49 -605082.06 424852.84
 404555.16 -499697.13 476065.01
 495204.81 -343667.67 525989.29
 556006.45 -149451.34 555446.78
 575791.88 57567.288 552403.59
 554284.96 248799.59 520448.79
 499697.23 404555.18 476064.90
 427092.04 516424.89 436918.43
 363657.85 579945.55 414024.31
 122427.66 -697938.61 371339.68
 174043.82 -653221.16 427797.69
 248799.57 -554284.86 520448.91
 325199.13 -387537.38 619725.99
 381971.64 -158395.29 684842.02
 403577.37 96253.623 684003.32
 387537.50 325199.15 619725.90
 343667.77 495204.83 525989.20
 288213.58 601837.85 441275.58
 242654.87 654524.44 390789.42
 5469.7657 -711035.50 366604.14
 25071.534 -670844.91 435130.47
 57567.268 -575791.78 552403.69
 96253.592 -403577.24 684003.40
 131309.81 -153274.13 774121.94
 153274.28 131309.85 774121.90
 158395.42 381971.68 684841.97
 149451.45 556006.49 555446.71
 132841.24 654263.24 440786.59
 117354.36 697386.88 374004.67
 -117354.31 -697386.79 374004.85
 -132841.19 -654263.14 440786.76
 -149451.37 -556006.36 555446.86
 -158395.33 -381971.52 684842.08
 -153274.17 -131309.67 774121.95
 -131309.70 153274.32 774121.92
 -96253.493 403577.41 684003.32
 -57567.187 575791.91 552403.56
 -25071.471 670845.01 435130.32
 -5469.7191 711035.59 366603.98
 -242654.83 -654524.35 390789.60
 -288213.53 -601837.75 441275.74
 -343667.71 -495204.72 525989.35
 -387537.42 -325199.01 619726.03
 -403577.28 -96253.464 684003.40
 -381971.55 158395.46 684842.03
 -325199.04 387537.54 619725.94
 -248799.49 554285.00 520448.80
 -174043.76 653221.27 427797.55
 -122427.61 697938.71 371339.52
 -363657.81 -579945.45 414024.49
 -427091.99 -516424.79 436918.60
 -499697.17 -404555.08 476065.05
 -554284.90 -248799.48 520448.91
 -575791.82 -57567.165 552403.66
 -556006.39 149451.47 555446.80
 -495204.74 343667.81 525989.26
 -404555.10 499697.26 476064.93
 -305574.44 605082.17 424852.72
 -230335.38 659032.77 390667.91
 -467310.97 -478887.94 438505.19
 -534806.81 -411466.75 429740.38
 -605082.09 -305574.42 424852.84
 -653221.19 -174043.74 427797.67
 -670844.94 -25071.456 435130.43
 -654263.17 132841.27 440786.69
 -601837.78 288213.61 441275.65
 -516424.82 427092.08 436918.49
 -411466.78 534806.89 429740.25
 -321968.08 597863.13 422961.27
 -534271.13 -382085.16 456689.48
 -597863.04 -321968.06 422961.41
 -659032.70 -230335.36 390668.05
 -697938.64 -122427.60 371339.65
 -711035.53 -5469.7059 366604.09
 -697386.82 117354.37 374004.77
 -654524.38 242654.90 390789.50
 -579945.48 363657.88 414024.37
 -478887.98 467311.05 438505.06
 -382085.20 534271.22 456689.34
 331382.94 -582902.56 436359.89
 438111.78 -518827.64 422937.29
 553241.37 -415817.02 401273.21
 642009.56 -292088.46 377502.40
 697091.12 -162284.31 357390.22
 720825.57 -35589.587 345172.24
 716833.67 82625.461 345430.92
 687607.75 188553.07 362826.84
 637157.91 275874.86 397395.09
 582902.65 331382.95 436359.76
 275874.86 -637157.83 397395.22
 371963.68 -580103.06 406353.86
 489530.18 -477124.43 415586.92
 590542.64 -338276.65 420509.57
 658070.41 -178545.90 418407.34
 687204.34 -15130.192 409293.63
 679872.48 136888.45 398791.88
 641287.37 268061.48 396097.90
 580103.15 371963.68 406353.74
 518827.72 438111.79 422937.17
 188553.07 -687607.68 362826.97
 268061.49 -641287.29 396098.03
 378296.02 -544427.23 447762.34
 486448.43 -391732.94 499913.22
 566566.68 -192632.33 530937.83
 602212.44 23644.036 526099.93
 591492.83 221228.36 491115.31
 544427.33 378296.01 447762.23
 477124.51 489530.18 415586.82
 415817.10 553241.38 401273.12
 82625.465 -716833.61 345431.04
 136888.47 -679872.40 398792.00
 221228.37 -591492.72 491115.43
 315565.72 -430245.62 596076.32
 394704.17 -193918.75 668284.47
 435155.39 76333.471 666943.02
 430245.76 315565.71 596076.23
 391733.05 486448.42 499913.14
 338276.75 590542.64 420509.50
 292088.54 642009.56 377502.33
 -35589.588 -720825.52 345172.35
 -15130.187 -687204.26 409293.75
 23644.040 -602212.34 526100.05
 76333.482 -435155.24 666943.11
 131773.42 -174247.64 769593.09
 174247.82 131773.42 769593.05
 193918.91 394704.17 668284.43
 192632.46 566566.68 530937.78
 178546.00 658070.41 418407.29
 162284.39 697091.13 357390.17
 -162284.32 -697091.06 357390.33
 -178545.91 -658070.34 418407.45
 -192632.33 -566566.58 530937.94
 -193918.76 -394704.03 668284.56
 -174247.64 -131773.24 769593.12
 -131773.24 174247.83 769593.08
 -76333.315 435155.40 666943.03
 -23643.909 602212.45 526099.92
 15130.286 687204.35 409293.61
 35589.660 720825.58 345172.21
 -292088.48 -642009.49 377502.49
 -338276.67 -590542.56 420509.66
 -391732.96 -486448.33 499913.30
 -430245.64 -315565.59 596076.38
 -435155.25 -76333.322 666943.12
 -394704.02 193918.92 668284.51
 -315565.58 430245.78 596076.28
 -221228.25 591492.85 491115.34
 -136888.37 679872.49 398791.88
 -82625.389 716833.68 345430.91
 -415817.04 -553241.30 401273.29
 -477124.45 -489530.10 415586.99
 -544427.25 -378295.93 447762.39
 -591492.74 -221228.26 491115.45
 -602212.35 -23643.915 526100.04
 -566566.58 192632.46 530937.89
 -486448.32 391733.07 499913.22
 -378295.92 544427.35 447762.28
 -268061.40 641287.39 396097.93
 -188553.00 687607.77 362826.85
 -518827.67 -438111.70 422937.34
 -580103.09 -371963.60 406353.90
 -641287.31 -268061.41 396098.05
 -679872.42 -136888.38 398792.01
 -687204.28 15130.283 409293.73
 -658070.34 178546.01 418407.40
 -590542.56 338276.77 420509.59
 -489530.10 477124.54 415586.88
 -371963.60 580103.17 406353.78
 -275874.79 637157.93 397395.12
 -582902.58 -331382.85 436359.92
 -637157.85 -275874.78 397395.25
 -687607.70 -188553.00 362826.98
 -716833.62 -82625.394 345431.04
 -720825.53 35589.660 345172.33
 -697091.07 162284.40 357390.28
 -642009.50 292088.56 377502.42
 -553241.31 415817.12 401273.19
 -438111.71 518827.75 422937.23
 -331382.86 582902.67 436359.80
 284229.35 -625277.94 410172.12
 397753.09 -566700.05 400803.62
 524208.02 -468071.57 382249.86
 626351.13 -344769.13 358912.95
 694252.87 -211709.45 336440.29
 728850.87 -80268.448 319895.91
 733991.92 41498.475 315489.69
 713519.20 148069.50 330099.64
 672196.89 232911.41 365928.43
 625278.02 284229.34 410172.01
 232911.43 -672196.82 365928.54
 333945.22 -622757.01 375039.07
 461939.03 -527648.08 384967.32
 577736.62 -392262.22 390321.33
 661171.78 -229812.62 387347.44
 703823.74 -59838.109 375568.30
 706562.96 97864.805 362203.34
 676230.92 231163.76 359548.42
 622757.08 333945.20 375038.96
 566700.13 397753.07 400803.52
 148069.52 -713519.14 330099.75
 231163.80 -676230.84 359548.53
 351479.77 -591083.47 408757.02
 477499.19 -445887.42 461713.04
 579553.91 -243719.98 494689.64
 633248.94 -16001.546 488610.00
 632736.85 191216.34 450644.42
 591083.57 351479.73 408756.92
 527648.17 461939.00 384967.23
 468071.65 524208.00 382249.79
 41498.491 -733991.87 315489.80
 97864.833 -706562.90 362203.46
 191216.38 -632736.75 450644.54
 305452.77 -482360.86 560380.77
 412811.73 -239833.64 641923.90
 476891.34 51644.181 640240.21
 482361.00 305452.72 560380.67
 445887.55 477499.15 461712.96
 392262.32 577736.60 390321.27
 344769.21 626351.12 358912.90
 -80268.441 -728850.82 319896.02
 -59838.096 -703823.67 375568.42
 -16001.514 -633248.84 488610.12
 51644.219 -476891.18 640240.33
 133589.68 -203922.26 761951.12
 203922.48 133589.64 761951.07
 239833.83 412811.69 641923.86
 243720.13 579553.88 494689.60
 229812.72 661171.76 387347.40
 211709.54 694252.85 336440.26
 -211709.46 -694252.81 336440.40
 -229812.62 -661171.71 387347.55
 -243719.98 -579553.81 494689.76
 -239833.62 -412811.58 641924.01
 -203922.23 -133589.47 761951.16
 -133589.42 203922.45 761951.12
 -51643.993 476891.32 640240.25
 16001.691 633248.93 488610.01
 59838.218 703823.73 375568.30
 80268.532 728850.86 319895.90
 -344769.15 -626351.07 358913.05
 -392262.24 -577736.55 390321.42
 -445887.44 -477499.09 461713.13
 -482360.87 -305452.62 560380.84
 -476891.16 -51644.034 640240.36
 -412811.54 239833.81 641923.97
 -305452.57 482361.01 560380.75
 -191216.22 632736.85 450644.46
 -97864.703 706562.97 362203.36
 -41498.394 733991.92 315489.70
 -468071.60 -524207.94 382249.94
 -527648.11 -461938.94 384967.39
 -591083.49 -351479.67 408757.08
 -632736.76 -191216.26 450644.58
 -633248.83 16001.661 488610.13
 -579553.77 243720.12 494689.72
 -477499.04 445887.56 461713.06
 -351479.63 591083.59 408756.98
 -231163.67 676230.93 359548.46
 -148069.42 713519.21 330099.66
 -566700.07 -397753.00 400803.68
 -622757.02 -333945.13 375039.12
 -676230.86 -231163.70 359548.57
 -706562.90 -97864.732 362203.48
 -703823.67 59838.203 375568.42
 -661171.70 229812.73 387347.52
 -577736.52 392262.34 390321.36
 -461938.91 527648.19 384967.30
 -333945.11 622757.10 375039.01
 -232911.32 672196.90 365928.47
 -625277.96 -284229.25 410172.17
 -672196.83 -232911.34 365928.58
 -713519.15 -148069.44 330099.78
 -733991.87 -41498.409 315489.81
 -728850.81 80268.526 319896.01
 -694252.80 211709.54 336440.37
 -626351.05 344769.23 358912.99
 -524207.92 468071.68 382249.86
 -397752.98 566700.15 400803.58
 -284229.24 625278.04 410172.06
 250709.41 -655248.50 384440.10
 366327.46 -601938.07 378780.61
 498277.89 -509372.86 363673.53
 609603.20 -389137.48 341988.26
 688043.46 -254940.57 318749.90
 732272.11 -119287.16 299245.95
 745270.38 7317.5353 290720.68
 731652.22 117084.64 301622.65