# OOMMF OVF 2.0
#
# Segment count: 1
#
# Begin: Segment
# Begin: Header
#
# Title: Oxs_MinDriver::Magnetization
# Desc: Oxs vector field output
# Desc:  MIF source file: /home/ryan/Git/joommf/tools/omfvis/cube_example.mif
# Desc:  Iteration: 4910, State id: 10418
# Desc:  Stage: 24, Stage iteration: 311
# Desc:  Stage simulation time: 0 s
# Desc:  Total simulation time: -2 s
# meshunit: m
# meshtype: rectangular
# xbase: 2.5000000000000001e-09
# ybase: 2.5000000000000001e-09
# zbase: 2.5000000000000001e-09
# xnodes: 10
# ynodes: 10
# znodes: 10
# xstepsize: 5.0000000000000001e-09
# ystepsize: 5.0000000000000001e-09
# zstepsize: 5.0000000000000001e-09
# xmin: 0
# ymin: 0
# zmin: 0
# xmax: 4.9999999999999998e-08
# ymax: 4.9999999999999998e-08
# zmax: 4.9999999999999998e-08
# valuedim: 3
# valuelabels: Magnetization_x Magnetization_y Magnetization_z
# valueunits: A/m A/m A/m
#
# End: Header
#
# Begin: Data Text
 331629.14 234213.81 689322.86
 314118.58 241931.66 694837.10
 276678.31 255193.09 705921.81
 220674.44 272755.01 718962.79
 147969.11 292757.31 729656.29
 62797.089 312133.44 733913.65
 -27732.876 327304.78 729453.54
 -114479.40 335507.94 717167.27
 -187394.39 336052.24 701393.07
 -234213.84 331629.22 689322.81
 336052.16 187394.35 701393.11
 319926.97 198533.59 705854.90
 281436.47 215672.93 717132.28
 222206.52 238083.76 730712.24
 145004.62 263611.55 741270.94
 55236.457 288363.19 744174.44
 -38738.727 307841.01 737382.68
 -126825.82 318669.33 722748.27
 -198533.63 319927.06 705854.85
 -241931.68 314118.67 694837.05
 335507.86 114479.36 717167.31
 318669.23 126825.79 722748.32
 277535.77 147040.94 735766.85
 213850.78 174264.03 750932.68
 131355.98 205887.51 761810.96
 36968.583 237099.97 763162.45
 -59453.102 262354.69 753415.78
 -147040.96 277535.90 735766.80
 -215672.95 281436.59 717132.22
 -255193.11 276678.42 705921.76
 327304.69 27732.835 729453.58
 307840.91 38738.689 737382.73
 262354.56 59453.075 753415.83
 193311.69 89293.209 771140.27
 105611.11 125380.88 783023.58
 7703.1450 162204.49 783345.62
 -89293.224 193311.84 771140.23
 -174264.04 213850.92 750932.64
 -238083.77 222206.66 730712.20
 -272755.02 220674.57 718962.75
 312133.36 -62797.128 733913.68
 288363.09 -55236.494 744174.48
 237099.84 -36968.613 763162.49
 162204.34 -7703.1600 783345.65
 69954.327 29853.190 796376.28
 -29853.190 69954.493 796376.27
 -125380.87 105611.28 783023.56
 -205887.50 131356.15 761810.93
 -263611.55 145004.78 741270.91
 -292757.31 147969.26 729656.26
 292757.23 -147969.15 729656.31
 263611.45 -145004.66 741270.97
 205887.39 -131356.01 761810.99
 125380.74 -105611.13 783023.60
 29853.037 -69954.327 796376.29
 -69954.478 -29853.023 796376.27
 -162204.48 7703.3165 783345.62
 -237099.95 36968.752 763162.45
 -288363.18 55236.616 744174.44
 -312133.43 62797.237 733913.64
 272754.94 -220674.47 718962.81
 238083.67 -222206.55 730712.26
 174263.92 -213850.80 750932.70
 89293.084 -193311.70 771140.28
 -7703.2926 -162204.34 783345.65
 -105611.26 -125380.72 783023.59
 -193311.82 -89293.063 771140.25
 -262354.67 -59452.944 753415.80
 -307840.99 -38738.574 737382.70
 -327304.76 -27732.733 729453.56
 255193.03 -276678.33 705921.82
 215672.85 -281436.50 717132.29
 147040.84 -277535.79 735766.86
 59452.970 -262354.57 753415.84
 -36968.724 -237099.84 763162.49
 -131356.12 -205887.37 761810.97
 -213850.89 -174263.90 750932.68
 -277535.87 -147040.82 735766.84
 -318669.31 -126825.69 722748.31
 -335507.91 -114479.27 717167.30
 241931.60 -314118.60 694837.11
 198533.53 -319926.98 705854.92
 126825.71 -318669.25 722748.33
 38738.600 -307840.91 737382.73
 -55236.586 -288363.08 744174.48
 -145004.75 -263611.44 741270.96
 -222206.63 -238083.66 730712.25
 -281436.56 -215672.84 717132.27
 -319927.03 -198533.51 705854.90
 -336052.21 -187394.28 701393.11
 234213.76 -331629.15 689322.87
 187394.30 -336052.17 701393.12
 114479.29 -335507.87 717167.32
 27732.757 -327304.70 729453.58
 -62797.209 -312133.36 733913.67
 -147969.23 -292757.23 729656.30
 -220674.53 -272754.93 718962.79
 -276678.39 -255193.01 705921.81
 -314118.64 -241931.59 694837.09
 -331629.19 -234213.75 689322.86
 277130.03 182816.29 727857.92
 266995.95 181722.27 731908.59
 238900.07 187655.58 740075.77
 194048.50 199442.45 750045.26
 134806.11 215326.81 758591.90
 64826.918 232963.10 762578.30
 -10409.085 249564.09 760006.20
 -83464.126 262680.05 751021.26
 -144949.55 271359.13 738480.77
 -182816.33 277130.10 727857.88
 271359.05 144949.51 738480.81
 262950.14 148631.04 740787.44
 234826.50 158706.75 748110.07
 188543.05 174911.62 757533.79
 127515.20 195530.15 765184.84
 56288.873 217720.39 767743.05
 -19011.562 238065.09 763520.51
 -90537.627 253597.05 753320.30
 -148631.08 262950.23 740787.41
 -181722.30 266996.04 731908.55
 262679.97 83464.091 751021.29
 253596.95 90537.594 753320.34
 223717.48 104839.87 760893.61
 174890.65 125964.90 770419.43
 111444.64 152035.63 777473.64
 38903.100 179664.62 778593.07
 -35891.971 204743.04 772523.17
 -104839.89 223717.59 760893.58
 -158706.77 234826.60 748110.04
 -187655.60 238900.17 740075.73
 249564.01 10409.052 760006.22
 238064.99 19011.533 763520.54
 204742.93 35891.948 772523.20
 152396.92 60567.509 783011.34
 86307.955 90916.619 790117.15
 12867.477 123077.58 790371.01
 -60567.519 152397.04 783011.31
 -125964.91 174890.77 770419.40
 -174911.63 188543.17 757533.76
 -199442.47 194048.61 750045.23
 232963.02 -64826.947 762578.32
 217720.30 -56288.901 767743.08
 179664.51 -38903.119 778593.10
 123077.46 -12867.488 790371.03
 54288.802 19580.265 797915.62
 -19580.262 54288.931 797915.61
 -90916.617 86308.087 790117.13
 -152035.63 111444.77 777473.62
 -195530.15 127515.32 765184.82
 -215326.81 134806.23 758591.88
 215326.74 -134806.14 758591.92
 195530.06 -127515.22 765184.86
 152035.53 -111444.66 777473.65
 90916.506 -86307.961 790117.16
 19580.148 -54288.800 797915.62
 -54288.917 -19580.135 797915.62
 -123077.57 12867.611 790371.01
 -179664.60 38903.232 778593.07
 -217720.38 56289.002 767743.05
 -232963.09 64827.041 762578.29
 199442.39 -194048.52 750045.27
 174911.54 -188543.07 757533.80
 125964.81 -174890.66 770419.45
 60567.411 -152396.92 783011.34
 -12867.592 -123077.46 790371.03
 -86308.064 -90916.495 790117.15
 -152397.02 -60567.395 783011.33
 -204743.02 -35891.842 772523.19
 -238065.06 -19011.439 763520.52
 -249564.07 -10408.965 760006.20
 187655.52 -238900.09 740075.78
 158706.68 -234826.51 748110.09
 104839.79 -223717.49 760893.62
 35891.861 -204742.93 772523.21
 -38903.207 -179664.51 778593.09
 -111444.75 -152035.52 777473.64
 -174890.74 -125964.79 770419.43
 -223717.56 -104839.78 760893.60
 -253597.02 -90537.511 753320.33
 -262680.02 -83464.015 751021.28
 181722.21 -266995.96 731908.60
 148630.99 -262950.15 740787.45
 90537.526 -253596.96 753320.34
 19011.460 -238064.99 763520.55
 -56288.977 -217720.29 767743.07
 -127515.29 -195530.06 765184.84
 -188543.14 -174911.53 757533.79
 -234826.57 -158706.67 748110.07
 -262950.19 -148630.98 740787.44
 -271359.10 -144949.45 738480.80
 182816.25 -277130.03 727857.93
 144949.46 -271359.06 738480.82
 83464.029 -262679.97 751021.30
 10408.984 -249564.01 760006.22
 -64827.016 -232963.02 762578.32
 -134806.20 -215326.73 758591.91
 -194048.58 -199442.38 750045.26
 -238900.14 -187655.51 740075.76
 -266996.00 -181722.21 731908.59
 -277130.06 -182816.24 727857.92
 207234.37 117629.56 763686.59
 202421.40 112920.98 765685.59
 185373.57 114203.95 769801.34
 155927.51 121543.55 775186.29
 115632.34 133699.01 780226.72
 66902.370 149053.56 783139.26
 13187.392 165707.57 782538.88
 -40560.375 181784.98 778016.12
 -87378.450 195948.05 770694.08
 -117629.59 207234.43 763686.56
 195947.98 87378.424 770694.10
 192455.57 87446.513 771565.91
 175851.32 92846.331 774890.88
 146194.12 104216.14 779593.66
 105856.02 120431.95 783766.96
 57838.742 139593.42 785600.64
 5901.2317 159396.85 783937.38
 -44864.295 177590.25 778748.29
 -87446.536 192455.65 771565.89
 -112921.01 202421.48 765685.57
 181784.91 40560.352 778016.13
 177590.17 44864.276 778748.31
 159991.97 55071.634 781901.33
 129339.53 71292.641 786249.73
 88647.348 92296.141 789698.09
 41473.102 115878.50 790475.90
 -8127.7713 139324.37 787732.61
 -55071.649 159992.05 781901.31
 -92846.346 175851.40 774890.86
 -114203.97 185373.64 769801.32
 165707.51 -13187.410 782538.89
 159396.78 -5901.2478 783937.40
 139324.29 8127.7611 787732.62
 106710.57 28365.843 792343.51
 65196.235 53293.722 795555.93
 18764.985 80411.263 795727.28
 -28365.847 106710.65 792343.50
 -71292.646 129339.62 786249.72
 -104216.15 146194.21 779593.64
 -121543.55 155927.59 775186.27
 149053.50 -66902.384 783139.28
 139593.34 -57838.754 785600.65
 115878.42 -41473.110 790475.92
 80411.179 -18764.985 795727.29
 37515.979 8477.7517 799074.89
 -8477.7466 37516.064 799074.89
 -53293.717 65196.324 795555.92
 -92296.137 88647.438 789698.08
 -120431.95 105856.11 783766.95
 -133699.01 115632.42 780226.71
 133698.95 -115632.34 780226.73
 120431.89 -105856.03 783766.97
 92296.066 -88647.352 789698.10
 53293.647 -65196.236 795555.93
 8477.6716 -37515.973 799074.89
 -37516.050 -8477.6610 799074.89
 -80411.249 18765.072 795727.28
 -115878.48 41473.191 790475.90
 -139593.40 57838.832 785600.63
 -149053.55 66902.458 783139.26
 121543.49 -155927.51 775186.29
 104216.08 -146194.13 779593.67
 71292.578 -129339.54 786249.74
 28365.772 -106710.56 792343.51
 -18765.055 -80411.174 795727.29
 -65196.306 -53293.637 795555.93
 -106710.63 -28365.760 792343.50
 -139324.35 -8127.6854 787732.61
 -159396.83 5901.3185 783937.39
 -165707.55 13187.478 782538.88
 114203.90 -185373.57 769801.34
 92846.278 -175851.32 774890.88
 55071.574 -159991.97 781901.33
 8127.7002 -139324.29 787732.62
 -41473.174 -115878.41 790475.91
 -88647.412 -92296.059 789698.09
 -129339.60 -71292.569 786249.73
 -159992.02 -55071.565 781901.32
 -177590.22 -44864.214 778748.30
 -181784.95 -40560.292 778016.13
 112920.94 -202421.40 765685.60
 87446.463 -192455.57 771565.92
 44864.223 -177590.17 778748.31
 -5901.3050 -159396.77 783937.40
 -57838.809 -139593.34 785600.64
 -105856.08 -120431.88 783766.96
 -146194.17 -104216.07 779593.66
 -175851.36 -92846.274 774890.87
 -192455.61 -87446.459 771565.91
 -195948.01 -87378.374 770694.10
 117629.52 -207234.36 763686.59
 87378.377 -195947.98 770694.11
 40560.300 -181784.91 778016.14
 -13187.463 -165707.50 782538.89
 -66902.437 -149053.50 783139.27
 -115632.39 -133698.95 780226.72
 -155927.56 -121543.49 775186.29
 -185373.61 -114203.90 769801.34
 -202421.43 -112920.94 765685.59
 -207234.39 -117629.52 763686.59
 136616.50 52049.647 786528.30
 137476.36 48986.357 786575.23
 131918.92 50611.352 787423.58
 118425.25 57195.892 789116.02
 97270.681 67812.787 791163.60
 69541.310 81303.144 792813.85
 37009.262 96377.175 793310.63
 2479.8002 111661.04 792165.17
 -29595.092 125737.46 789502.51
 -52049.654 136616.54 786528.29
 125737.42 29595.087 789502.52
 126986.37 30395.496 789272.18
 121464.49 35614.650 789922.76
 107849.58 45718.771 791377.45
 86959.808 59834.423 793005.57
 60243.915 76615.185 794040.80
 29635.483 94500.199 793845.99
 -2030.8566 111852.95 792139.38
 -30395.500 126986.42 789272.17
 -48986.362 137476.40 786575.22
 111661.00 -2479.8022 792165.18
 111852.91 2030.8565 792139.38
 105255.60 11580.418 792961.00
 90923.739 25978.255 794391.59
 70113.944 44209.322 795694.40
 44600.213 64727.729 796128.85
 16451.679 85708.684 795225.35
 -11580.416 105255.65 792961.00
 -35614.651 121464.53 789922.76
 -50611.354 131918.97 787423.57
 96377.135 -37009.260 793310.63
 94500.153 -29635.482 793845.99
 85708.639 -16451.674 795225.36
 69873.465 1591.2472 796941.13
 48686.654 23197.172 798180.12
 24156.685 46624.619 798274.76
 -1591.2402 69873.515 796941.13
 -25978.250 90923.787 794391.59
 -45718.767 107849.63 791377.44
 -57195.891 118425.30 789116.01
 81303.104 -69541.306 792813.86
 76615.143 -60243.909 794040.80
 64727.682 -44600.207 796128.85
 46624.573 -24156.677 798274.77
 24480.570 -494.52604 799625.20
 494.53711 24480.618 799625.20
 -23197.163 48686.702 798180.12
 -44209.313 70113.993 795694.39
 -59834.415 86959.859 793005.56
 -67812.780 97270.730 791163.59
 67812.748 -97270.674 791163.60
 59834.380 -86959.802 793005.57
 44209.279 -70113.937 795694.40
 23197.125 -48686.644 798180.12
 -494.57096 -24480.560 799625.20
 -24480.606 494.58326 799625.20
 -46624.605 24156.734 798274.76
 -64727.716 44600.263 796128.85
 -76615.172 60243.962 794040.79
 -81303.132 69541.360 792813.85
 57195.854 -118425.24 789116.02
 45718.731 -107849.58 791377.45
 25978.212 -90923.730 794391.60
 1591.2046 -69873.457 796941.13
 -24156.721 -46624.563 798274.77
 -48686.685 -23197.116 798180.12
 -69873.498 -1591.1942 796941.13
 -85708.665 16451.726 795225.36
 -94500.180 29635.532 793845.99
 -96377.157 37009.310 793310.63
 50611.314 -131918.91 787423.58
 35614.610 -121464.48 789922.77
 11580.378 -105255.59 792961.00
 -16451.716 -85708.630 795225.36
 -44600.246 -64727.674 796128.85
 -70113.976 -44209.271 795694.40
 -90923.764 -25978.204 794391.59
 -105255.63 -11580.371 792961.00
 -111852.93 -2030.8108 792139.38
 -111661.01 2479.8475 792165.18
 48986.319 -137476.35 786575.23
 30395.457 -126986.36 789272.18
 2030.8160 -111852.90 792139.38
 -29635.520 -94500.145 793845.99
 -60243.949 -76615.136 794040.80
 -86959.836 -59834.374 793005.57
 -107849.61 -45718.727 791377.44
 -121464.51 -35614.606 789922.76
 -126986.39 -30395.456 789272.18
 -125737.43 -29595.046 789502.52
 52049.607 -136616.48 786528.31
 29595.047 -125737.41 789502.52
 -2479.8421 -111660.99 792165.18
 -37009.300 -96377.127 793310.63
 -69541.343 -81303.097 792813.85
 -97270.709 -67812.744 791163.60
 -118425.27 -57195.851 789116.02
 -131918.94 -50611.314 787423.58
 -137476.37 -48986.320 786575.23
 -136616.50 -52049.610 786528.30
 71329.288 -10012.602 796750.83
 78730.402 -8511.3360 796071.03
 84916.802 -3143.2906 795474.23
 86805.247 5580.1420 795257.01
 83345.487 16686.096 795471.62
 74449.798 29180.312 795993.55
 60651.288 42056.720 796588.13
 43221.435 54240.538 796988.00
 24687.989 64514.798 797012.14
 10012.627 71329.288 796750.83
 64514.794 -24687.964 797012.14
 70968.381 -20723.476 796576.44
 76095.542 -12633.828 796272.48
 77127.855 -1001.1500 796272.75
 73352.939 13155.822 796521.36
 64879.406 28678.616 796848.92
 52293.949 44350.611 797056.06
 36799.712 58904.712 796979.31
 20723.500 70968.386 796576.44
 8511.3581 78730.407 796071.03
 54240.532 -43221.409 796988.00
 58904.703 -36799.689 796979.31
 62087.347 -25518.869 797178.74
 61672.976 -10455.864 797550.70
 57327.208 7206.6561 797910.81
 49359.360 26137.933 798047.91
 38398.554 44918.240 797814.45
 25518.892 62087.357 797178.74
 12633.849 76095.552 796272.47
 3143.3102 84916.811 795474.23
 42056.709 -60651.264 796588.14
 44350.601 -52293.924 797056.06
 44918.226 -38398.533 797814.46
 42569.437 -20539.670 798602.51
 37377.726 -98.553667 799126.33
 29819.626 21454.963 799156.10
 20539.690 42569.450 798602.51
 10455.884 61672.989 797550.70
 1001.1681 77127.866 796272.75
 -5580.1248 86805.257 795257.01
 29180.298 -74449.773 795993.56
 28678.600 -64879.384 796848.92
 26137.918 -49359.337 798047.91
 21454.946 -29819.605 799156.10
 15135.216 -7800.9854 799818.77
 7801.0027 15135.231 799818.77
 98.572157 37377.741 799126.33
 -7206.6390 57327.221 797910.81
 -13155.806 73352.949 796521.36
 -16686.081 83345.500 795471.62
 16686.078 -83345.465 795471.63
 13155.803 -73352.915 796521.36
 7206.6373 -57327.187 797910.81
 -98.572753 -37377.708 799126.33
 -7801.0038 -15135.198 799818.77
 -15135.215 7801.0188 799818.77
 -21454.946 29819.639 799156.10
 -26137.917 49359.371 798047.91
 -28678.601 64879.420 796848.92
 -29180.298 74449.809 795993.55
 5580.1194 -86805.223 795257.01
 -1001.1722 -77127.833 796272.75
 -10455.887 -61672.955 797550.70
 -20539.692 -42569.418 798602.51
 -29819.626 -21454.930 799156.10
 -37377.726 98.585750 799126.33
 -42569.435 20539.703 798602.51
 -44918.225 38398.566 797814.45
 -44350.597 52293.958 797056.06
 -42056.706 60651.299 796588.13
 -3143.3177 -84916.779 795474.24
 -12633.855 -76095.519 796272.48
 -25518.895 -62087.327 797178.74
 -38398.556 -44918.209 797814.46
 -49359.360 -26137.903 798047.91
 -57327.207 -7206.6252 797910.81
 -61672.974 10455.895 797550.70
 -62087.342 25518.902 797178.74
 -58904.698 36799.723 796979.31
 -54240.524 43221.444 796988.00
 -8511.3676 -78730.376 796071.03
 -20723.508 -70968.358 796576.44
 -36799.717 -58904.682 796979.31
 -52293.951 -44350.583 797056.06
 -64879.407 -28678.587 796848.92
 -73352.936 -13155.794 796521.36
 -77127.850 1001.1796 796272.75
 -76095.536 12633.858 796272.48
 -70968.370 20723.509 796576.44
 -64514.783 24687.998 797012.14
 -10012.638 -71329.260 796750.83
 -24687.998 -64514.770 797012.14
 -43221.441 -54240.512 796988.00
 -60651.291 -42056.693 796588.13
 -74449.797 -29180.286 795993.55
 -83345.484 -16686.069 795471.62
 -86805.241 -5580.1148 795257.01
 -84916.793 3143.3197 795474.23
 -78730.390 8511.3672 796071.03
 -71329.272 10012.636 796750.83
 10012.657 -71329.246 796750.83
 24688.016 -64514.759 797012.14
 43221.461 -54240.505 796988.00
 60651.312 -42056.692 796588.13
 74449.822 -29180.289 795993.55
 83345.511 -16686.078 795471.62
 86805.270 -5580.1268 795257.01
 84916.825 3143.3028 795474.23
 78730.423 8511.3471 796071.03
 71329.306 10012.613 796750.83
 8511.3848 -78730.364 796071.03
 20723.527 -70968.348 796576.44
 36799.735 -58904.677 796979.31
 52293.973 -44350.581 797056.06
 64879.429 -28678.593 796848.92
 73352.962 -13155.800 796521.35
 77127.879 1001.1653 796272.75
 76095.565 12633.843 796272.47
 70968.402 20723.490 796576.44
 64514.813 24687.977 797012.13
 3143.3341 -84916.770 795474.24
 12633.872 -76095.512 796272.48
 25518.915 -62087.323 797178.74
 38398.576 -44918.211 797814.45
 49359.382 -26137.906 798047.91
 57327.231 -7206.6361 797910.81
 61672.999 10455.884 797550.70
 62087.369 25518.887 797178.74
 58904.724 36799.705 796979.31
 54240.550 43221.426 796988.00
 -5580.1047 -86805.218 795257.01
 1001.1883 -77127.831 796272.75
 10455.904 -61672.954 797550.70
 20539.711 -42569.420 798602.51
 29819.647 -21454.937 799156.10
 37377.748 98.577274 799126.33
 42569.459 20539.691 798602.51
 44918.249 38398.551 797814.45
 44350.620 52293.943 797056.06
 42056.729 60651.282 796588.13
 -16686.065 -83345.464 795471.63
 -13155.789 -73352.915 796521.36
 -7206.6219 -57327.190 797910.81
 98.590601 -37377.712 799126.33
 7801.0217 -15135.205 799818.77
 15135.235 7801.0089 799818.77
 21454.967 29819.626 799156.10
 26137.936 49359.358 798047.91
 28678.621 64879.403 796848.92
 29180.316 74449.793 795993.55
 -29180.286 -74449.777 795993.56
 -28678.588 -64879.389 796848.92
 -26137.903 -49359.342 798047.91
 -21454.931 -29819.612 799156.10
 -15135.199 -7800.9939 799818.77
 -7800.9853 15135.220 799818.77
 -98.555836 37377.729 799126.33
 7206.6576 57327.207 797910.81
 13155.820 73352.935 796521.36
 16686.096 83345.485 795471.62
 -42056.700 -60651.271 796588.14
 -44350.589 -52293.931 797056.06
 -44918.214 -38398.539 797814.46
 -42569.424 -20539.679 798602.51
 -37377.712 -98.563152 799126.33
 -29819.612 21454.952 799156.10
 -20539.674 42569.437 798602.51
 -10455.871 61672.975 797550.70
 -1001.1538 77127.853 796272.75
 5580.1360 86805.242 795257.01
 -54240.523 -43221.420 796988.00
 -58904.694 -36799.698 796979.31
 -62087.337 -25518.879 797178.74
 -61672.965 -10455.873 797550.70
 -57327.197 7206.6463 797910.81
 -49359.346 26137.921 798047.91
 -38398.542 44918.228 797814.46
 -25518.878 62087.344 797178.74
 -12633.839 76095.537 796272.48
 -3143.3000 84916.798 795474.23
 -64514.786 -24687.976 797012.14
 -70968.372 -20723.487 796576.44
 -76095.533 -12633.838 796272.48
 -77127.845 -1001.1597 796272.75
 -73352.927 13155.812 796521.36
 -64879.395 28678.606 796848.92
 -52293.936 44350.599 797056.06
 -36799.701 58904.700 796979.31
 -20723.490 70968.375 796576.44
 -8511.3492 78730.395 796071.03
 -71329.279 -10012.615 796750.83
 -78730.394 -8511.3474 796071.03
 -84916.793 -3143.3009 795474.23
 -86805.237 5580.1322 795257.01
 -83345.477 16686.086 795471.62
 -74449.786 29180.301 795993.55
 -60651.276 42056.709 796588.13
 -43221.424 54240.527 796988.00
 -24687.979 64514.787 797012.14
 -10012.618 71329.278 796750.83
 -52049.577 -136616.47 786528.31
 -29595.014 -125737.40 789502.53
 2479.8747 -111660.98 792165.18
 37009.336 -96377.133 793310.63
 69541.382 -81303.116 792813.85
 97270.752 -67812.769 791163.59
 118425.32 -57195.888 789116.01
 131918.99 -50611.357 787423.57
 137476.42 -48986.370 786575.21
 136616.56 -52049.664 786528.29
 -48986.290 -137476.33 786575.24
 -30395.428 -126986.35 789272.19
 -2030.7814 -111852.90 792139.38
 29635.554 -94500.156 793845.99
 60243.987 -76615.152 794040.79
 86959.880 -59834.406 793005.56
 107849.65 -45718.762 791377.44
 121464.56 -35614.652 789922.75
 126986.44 -30395.505 789272.17
 125737.48 -29595.100 789502.51
 -50611.289 -131918.90 787423.58
 -35614.581 -121464.48 789922.77
 -11580.349 -105255.59 792961.01
 16451.750 -85708.640 795225.36
 44600.283 -64727.697 796128.85
 70114.014 -44209.299 795694.39
 90923.808 -25978.244 794391.59
 105255.67 -11580.415 792960.99
 111852.97 -2030.8594 792139.37
 111661.06 2479.7957 792165.17
 -57195.831 -118425.24 789116.02
 -45718.707 -107849.57 791377.45
 -25978.185 -90923.737 794391.60
 -1591.1750 -69873.472 796941.13
 24156.752 -46624.584 798274.76
 48686.721 -23197.148 798180.11
 69873.532 -1591.2328 796941.13
 85708.702 16451.683 795225.35
 94500.216 29635.483 793845.98
 96377.191 37009.261 793310.63
 -67812.730 -97270.676 791163.60
 -59834.361 -86959.809 793005.57
 -44209.257 -70113.945 795694.40
 -23197.103 -48686.661 798180.12
 494.59750 -24480.585 799625.20
 24480.632 494.55077 799625.20
 46624.632 24156.696 798274.76
 64727.744 44600.217 796128.85
 76615.196 60243.918 794040.79
 81303.157 69541.312 792813.85
 -81303.091 -69541.314 792813.86
 -76615.128 -60243.917 794040.80
 -64727.667 -44600.220 796128.85
 -46624.555 -24156.696 798274.77
 -24480.551 -494.55144 799625.20
 -494.51857 24480.586 799625.20
 23197.182 48686.662 798180.12
 44209.328 70113.951 795694.39
 59834.432 86959.813 793005.57
 67812.793 97270.684 791163.60
 -96377.127 -37009.270 793310.63
 -94500.145 -29635.493 793845.99
 -85708.629 -16451.689 795225.36
 -69873.454 1591.2283 796941.13
 -48686.643 23197.145 798180.12
 -24156.672 46624.586 798274.77
 1591.2489 69873.477 796941.13
 25978.260 90923.745 794391.59
 45718.772 107849.59 791377.44
 57195.895 118425.25 789116.02
 -111660.99 -2479.8139 792165.18
 -111852.90 2030.8442 792139.38
 -105255.60 11580.403 792961.00
 -90923.734 25978.234 794391.59
 -70113.937 44209.297 795694.40
 -44600.209 64727.697 796128.85
 -16451.674 85708.647 795225.36
 11580.416 105255.61 792961.00
 35614.649 121464.49 789922.76
 50611.350 131918.92 787423.58
 -125737.42 29595.075 789502.52
 -126986.37 30395.484 789272.18
 -121464.49 35614.634 789922.77
 -107849.58 45718.753 791377.45
 -86959.807 59834.397 793005.57
 -60243.913 76615.155 794040.80
 -29635.485 94500.163 793845.99
 2030.8530 111852.91 792139.38
 30395.492 126986.38 789272.18
 48986.353 137476.36 786575.23
 -136616.50 52049.635 786528.30
 -137476.36 48986.345 786575.23
 -131918.92 50611.338 787423.58
 -118425.25 57195.874 789116.02
 -97270.680 67812.764 791163.60
 -69541.311 81303.116 792813.86
 -37009.265 96377.142 793310.63
 -2479.8074 111661.00 792165.18
 29595.081 125737.43 789502.52
 52049.640 136616.50 786528.30
 -117629.48 -207234.35 763686.60
 -87378.332 -195947.97 770694.12
 -40560.250 -181784.91 778016.14
 13187.517 -165707.52 782538.89
 66902.496 -149053.53 783139.26
 115632.46 -133698.99 780226.71
 155927.62 -121543.55 775186.26
 185373.67 -114203.96 769801.31
 202421.50 -112921.01 765685.56
 207234.46 -117629.60 763686.56
 -112920.90 -202421.39 765685.61
 -87446.418 -192455.57 771565.93
 -44864.175 -177590.18 778748.31
 5901.3592 -159396.79 783937.39
 57838.867 -139593.38 785600.63
 105856.14 -120431.93 783766.95
 146194.24 -104216.13 779593.64
 175851.43 -92846.344 774890.85
 192455.67 -87446.538 771565.89
 195948.08 -87378.456 770694.07
 -114203.86 -185373.56 769801.35
 -92846.238 -175851.32 774890.89
 -55071.528 -159991.98 781901.33
 -8127.6496 -139324.31 787732.62
 41473.228 -115878.45 790475.90
 88647.471 -92296.115 789698.08
 129339.65 -71292.633 786249.71
 159992.08 -55071.641 781901.30
 177590.27 -44864.294 778748.28
 181785.00 -40560.376 778016.11
 -121543.46 -155927.51 775186.30
 -104216.04 -146194.13 779593.67
 -71292.537 -129339.55 786249.74
 -28365.728 -106710.59 792343.51
 18765.104 -80411.217 795727.28
 65196.355 -53293.693 795555.92
 106710.68 -28365.829 792343.49
 139324.40 -8127.7631 787732.60
 159396.87 5901.2378 783937.38
 165707.60 13187.394 782538.87
 -133698.93 -115632.35 780226.73
 -120431.86 -105856.04 783766.97
 -92296.036 -88647.373 789698.10
 -53293.611 -65196.267 795555.93
 -8477.6353 -37516.017 799074.89
 37516.089 -8477.7191 799074.88
 80411.288 18765.001 795727.28
 115878.52 41473.116 790475.90
 139593.44 57838.750 785600.63
 149053.58 66902.377 783139.26
 -149053.48 -66902.395 783139.28
 -139593.33 -57838.770 785600.65
 -115878.40 -41473.131 790475.92
 -80411.156 -18765.019 795727.29
 -37515.955 8477.7053 799074.89
 8477.7715 37516.004 799074.89
 53293.740 65196.256 795555.92
 92296.159 88647.361 789698.08
 120431.97 105856.03 783766.96
 133699.03 115632.34 780226.72
 -165707.50 -13187.424 782538.89
 -159396.77 -5901.2631 783937.40
 -139324.28 8127.7375 787732.62
 -106710.56 28365.809 792343.51
 -65196.223 53293.678 795555.93
 -18764.975 80411.205 795727.29
 28365.856 106710.58 792343.50
 71292.652 129339.55 786249.73
 104216.15 146194.13 779593.66
 121543.55 155927.52 775186.28
 -181784.91 40560.339 778016.13
 -177590.17 44864.259 778748.31
 -159991.97 55071.612 781901.33
 -129339.53 71292.611 786249.74
 -88647.349 92296.096 789698.09
 -41473.103 115878.44 790475.91
 8127.7672 139324.31 787732.62
 55071.641 159991.98 781901.32
 92846.336 175851.33 774890.88
 114203.95 185373.57 769801.33
 -195947.99 87378.412 770694.10
 -192455.58 87446.499 771565.91
 -175851.32 92846.311 774890.88
 -146194.13 104216.11 779593.66
 -105856.03 120431.91 783766.97
 -57838.752 139593.37 785600.64
 -5901.2446 159396.79 783937.39
 44864.279 177590.18 778748.31
 87446.515 192455.58 771565.91
 112920.98 202421.41 765685.59
 -207234.37 117629.55 763686.59
 -202421.41 112920.97 765685.59
 -185373.57 114203.93 769801.34
 -155927.52 121543.52 775186.29
 -115632.35 133698.98 780226.73
 -66902.383 149053.52 783139.27
 -13187.408 165707.52 782538.89
 40560.353 181784.92 778016.13
 87378.425 195947.99 770694.10
 117629.56 207234.37 763686.58
 -182816.19 -277130.02 727857.95
 -144949.40 -271359.06 738480.83
 -83463.963 -262679.98 751021.30
 -10408.911 -249564.03 760006.22
 64827.093 -232963.06 762578.30
 134806.28 -215326.79 758591.88
 194048.65 -199442.45 750045.22
 238900.21 -187655.59 740075.72
 266996.07 -181722.30 731908.54
 277130.13 -182816.33 727857.87
 -181722.16 -266995.95 731908.61
 -148630.93 -262950.15 740787.46
 -90537.459 -253596.97 753320.35
 -19011.386 -238065.02 763520.54
 56289.056 -217720.34 767743.05
 127515.37 -195530.12 765184.81
 188543.22 -174911.61 757533.75
 234826.64 -158706.76 748110.03
 262950.26 -148631.08 740787.39
 271359.16 -144949.55 738480.76
 -187655.47 -238900.09 740075.79
 -158706.63 -234826.52 748110.09
 -104839.73 -223717.51 760893.62
 -35891.791 -204742.97 772523.20
 38903.284 -179664.56 778593.08
 111444.83 -152035.60 777473.62
 174890.82 -125964.89 770419.40
 223717.63 -104839.88 760893.57
 253597.08 -90537.620 753320.29
 262680.08 -83464.125 751021.25
 -199442.35 -194048.52 750045.28
 -174911.50 -188543.08 757533.81
 -125964.75 -174890.69 770419.45
 -60567.347 -152396.97 783011.34
 12867.659 -123077.52 790371.02
 86308.133 -90916.580 790117.13
 152397.08 -60567.495 783011.31
 204743.08 -35891.953 772523.16
 238065.12 -19011.554 763520.50
 249564.12 -10409.079 760006.19
 -215326.71 -134806.15 758591.93
 -195530.03 -127515.24 765184.86
 -152035.49 -111444.69 777473.66
 -90916.457 -86308.010 790117.16
 -19580.095 -54288.869 797915.62
 54288.971 -19580.224 797915.61
 123077.62 12867.507 790371.01
 179664.65 38903.117 778593.06
 217720.42 56288.887 767743.04
 232963.13 64826.927 762578.29
 -232963.00 -64826.963 762578.33
 -217720.27 -56288.920 767743.08
 -179664.48 -38903.153 778593.10
 -123077.43 -12867.537 790371.03
 -54288.769 19580.195 797915.63
 19580.296 54288.842 797915.62
 90916.648 86307.983 790117.14
 152035.66 111444.66 777473.63
 195530.17 127515.21 765184.83
 215326.83 134806.12 758591.90
 -249564.00 10409.036 760006.23
 -238064.98 19011.510 763520.55
 -204742.92 35891.916 772523.21
 -152396.90 60567.461 783011.35
 -86307.943 90916.551 790117.16
 -12867.465 123077.50 790371.02
 60567.530 152396.94 783011.33
 125964.92 174890.67 770419.43
 174911.63 188543.07 757533.78
 199442.47 194048.51 750045.25
 -262679.97 83464.075 751021.29
 -253596.96 90537.576 753320.34
 -223717.48 104839.84 760893.62
 -174890.65 125964.85 770419.44
 -111444.65 152035.57 777473.65
 -38903.106 179664.54 778593.09
 35891.961 204742.96 772523.20
 104839.88 223717.50 760893.61
 158706.76 234826.51 748110.07
 187655.59 238900.08 740075.76
 -271359.06 144949.50 738480.81
 -262950.15 148631.03 740787.44
 -234826.51 158706.72 748110.08
 -188543.07 174911.58 757533.80
 -127515.21 195530.10 765184.85
 -56288.892 217720.33 767743.07
 19011.542 238065.01 763520.54
 90537.601 253596.97 753320.33
 148631.05 262950.15 740787.44
 181722.27 266995.96 731908.58
 -277130.04 182816.28 727857.92
 -266995.96 181722.25 731908.59
 -238900.09 187655.56 740075.77
 -194048.52 199442.42 750045.26
 -134806.13 215326.77 758591.91
 -64826.941 232963.05 762578.31
 10409.058 249564.02 760006.22
 83464.096 262679.98 751021.29
 144949.52 271359.06 738480.80
 182816.30 277130.03 727857.92
 -234213.71 -331629.15 689322.89
 -187394.23 -336052.18 701393.14
 -114479.21 -335507.88 717167.33
 -27732.670 -327304.72 729453.58
 62797.299 -312133.40 733913.65
 147969.31 -292757.28 729656.26
 220674.62 -272755.01 718962.74
 276678.46 -255193.10 705921.75