# OOMMF OVF 2.0
#
# Segment count: 1
#
# Begin: Segment
# Begin: Header
#
# Title: Oxs_MinDriver::Magnetization
# Desc: Oxs vector field output
# Desc:  MIF source file: /home/ryan/Git/joommf/tools/omfvis/cube_example.mif
# Desc:  Iteration: 5370, State id: 11418
# Desc:  Stage: 33, Stage iteration: 35
# Desc:  Stage simulation time: 0 s
# Desc:  Total simulation time: -2 s
# meshunit: m
# meshtype: rectangular
# xbase: 2.5000000000000001e-09
# ybase: 2.5000000000000001e-09
# zbase: 2.5000000000000001e-09
# xnodes: 10
# ynodes: 10
# znodes: 10
# xstepsize: 5.0000000000000001e-09
# ystepsize: 5.0000000000000001e-09
# zstepsize: 5.0000000000000001e-09
# xmin: 0
# ymin: 0
# zmin: 0
# xmax: 4.9999999999999998e-08
# ymax: 4.9999999999999998e-08
# zmax: 4.9999999999999998e-08
# valuedim: 3
# valuelabels: Magnetization_x Magnetization_y Magnetization_z
# valueunits: A/m A/m A/m
#
# End: Header
#
# Begin: Data Text
 265715.60 265715.65 706250.96
 234022.45 272346.60 714885.18
 181418.94 279083.68 727460.97
 114718.95 284014.62 739036.71
 39250.001 286576.61 745877.53
 -39250.105 286576.60 745877.52
 -114719.05 284014.59 739036.71
 -181419.02 279083.64 727460.97
 -234022.51 272346.55 714885.18
 -265715.65 265715.60 706250.96
 272346.55 234022.51 714885.18
 242554.15 242554.21 722727.43
 189618.14 250418.06 735755.23
 120540.13 256085.04 748258.33
 41348.430 259035.55 755771.72
 -41348.529 259035.54 755771.72
 -120540.22 256085.00 748258.33
 -189618.21 250418.00 735755.23
 -242554.21 242554.15 722727.43
 -272346.60 234022.45 714885.18
 279083.64 181419.02 727460.97
 250418.01 189618.22 735755.23
 197234.15 197234.21 749798.21
 126068.24 202724.33 763550.68
 43367.656 205588.39 771914.93
 -43367.738 205588.37 771914.93
 -126068.32 202724.28 763550.68
 -197234.21 197234.15 749798.21
 -250418.06 189618.14 735755.23
 -279083.68 181418.94 727460.97
 284014.59 114719.05 739036.71
 256085.00 120540.22 748258.33
 202724.29 126068.32 763550.68
 130087.58 130087.64 778559.20
 44845.200 132191.99 787727.23
 -44845.254 132191.97 787727.23
 -130087.63 130087.58 778559.20
 -202724.33 126068.24 763550.68
 -256085.04 120540.13 748258.33
 -284014.61 114718.95 739036.71
 286576.60 39250.106 745877.52
 259035.54 41348.530 755771.72
 205588.38 43367.738 771914.93
 132191.97 44845.255 787727.23
 45620.917 45620.935 797394.17
 -45620.934 45620.915 797394.17
 -132191.99 44845.199 787727.23
 -205588.39 43367.654 771914.93
 -259035.55 41348.429 755771.72
 -286576.61 39250.000 745877.53
 286576.61 -39250.001 745877.53
 259035.56 -41348.430 755771.72
 205588.39 -43367.655 771914.93
 132191.99 -44845.199 787727.23
 45620.937 -45620.916 797394.17
 -45620.915 -45620.936 797394.17
 -132191.97 -44845.256 787727.23
 -205588.37 -43367.739 771914.93
 -259035.54 -41348.530 755771.72
 -286576.60 -39250.107 745877.52
 284014.62 -114718.95 739036.71
 256085.04 -120540.13 748258.33
 202724.33 -126068.24 763550.68
 130087.64 -130087.58 778559.20
 44845.256 -132191.97 787727.23
 -44845.198 -132191.99 787727.23
 -130087.58 -130087.64 778559.20
 -202724.28 -126068.32 763550.68
 -256085.00 -120540.22 748258.33
 -284014.59 -114719.05 739036.71
 279083.68 -181418.94 727460.97
 250418.06 -189618.14 735755.23
 197234.22 -197234.15 749798.21
 126068.32 -202724.29 763550.68
 43367.740 -205588.37 771914.93
 -43367.654 -205588.39 771914.93
 -126068.24 -202724.33 763550.68
 -197234.15 -197234.22 749798.21
 -250418.00 -189618.22 735755.23
 -279083.64 -181419.02 727460.97
 272346.60 -234022.45 714885.18
 242554.21 -242554.15 722727.43
 189618.22 -250418.01 735755.23
 120540.22 -256085.00 748258.33
 41348.531 -259035.54 755771.72
 -41348.428 -259035.55 755771.72
 -120540.13 -256085.04 748258.33
 -189618.14 -250418.06 735755.23
 -242554.15 -242554.21 722727.43
 -272346.55 -234022.51 714885.18
 265715.65 -265715.60 706250.96
 234022.51 -272346.55 714885.18
 181419.02 -279083.64 727460.97
 114719.05 -284014.59 739036.71
 39250.107 -286576.60 745877.52
 -39250.000 -286576.61 745877.53
 -114718.95 -284014.62 739036.71
 -181418.94 -279083.68 727460.97
 -234022.45 -272346.60 714885.18
 -265715.60 -265715.65 706250.96
 213279.64 213279.69 740961.25
 190462.77 210823.42 747848.53
 148550.24 210425.84 757399.36
 93994.738 210572.43 766044.54
 32134.626 210692.93 771087.45
 -32134.725 210692.93 771087.45
 -93994.828 210572.40 766044.54
 -148550.31 210425.80 757399.36
 -190462.83 210823.38 747848.52
 -213279.69 213279.64 740961.25
 210823.38 190462.83 747848.52
 190838.08 190838.14 753101.34
 150218.09 191814.47 761998.51
 95510.829 192684.91 770551.88
 32719.838 193144.95 775644.53
 -32719.928 193144.94 775644.53
 -95510.914 192684.88 770551.88
 -150218.16 191814.43 761998.51
 -190838.14 190838.08 753101.34
 -210823.42 190462.77 747848.53
 210425.80 148550.31 757399.36
 191814.43 150218.16 761998.51
 152024.52 152024.57 770569.32
 97101.245 153311.26 779145.05
 33337.483 153948.61 784339.49
 -33337.557 153948.60 784339.49
 -97101.311 153311.22 779145.05
 -152024.57 152024.51 770569.32
 -191814.47 150218.09 761998.51
 -210425.84 148550.24 757399.36
 210572.40 93994.829 766044.54
 192684.88 95510.915 770551.88
 153311.22 97101.312 779145.05
 98201.820 98201.865 787853.28
 33764.326 98738.192 793165.01
 -33764.373 98738.176 793165.01
 -98201.865 98201.819 787853.28
 -153311.26 97101.243 779145.05
 -192684.91 95510.829 770551.88
 -210572.43 93994.737 766044.54
 210692.93 32134.725 771087.45
 193144.94 32719.928 775644.53
 153948.60 33337.558 784339.49
 98738.177 33764.373 793165.01
 33971.701 33971.717 798556.10
 -33971.716 33971.700 798556.10
 -98738.191 33764.324 793165.01
 -153948.61 33337.483 784339.49
 -193144.95 32719.836 775644.53
 -210692.93 32134.625 771087.45
 210692.93 -32134.626 771087.45
 193144.95 -32719.837 775644.53
 153948.61 -33337.483 784339.49
 98738.193 -33764.325 793165.01
 33971.718 -33971.700 798556.10
 -33971.699 -33971.718 798556.10
 -98738.176 -33764.373 793165.01
 -153948.60 -33337.559 784339.49
 -193144.94 -32719.928 775644.53
 -210692.92 -32134.726 771087.45
 210572.43 -93994.738 766044.54
 192684.91 -95510.829 770551.88
 153311.26 -97101.244 779145.05
 98201.867 -98201.819 787853.28
 33764.375 -98738.177 793165.01
 -33764.324 -98738.192 793165.01
 -98201.818 -98201.866 787853.28
 -153311.22 -97101.312 779145.05
 -192684.88 -95510.915 770551.88
 -210572.40 -93994.829 766044.54
 210425.84 -148550.24 757399.36
 191814.47 -150218.09 761998.51
 152024.58 -152024.51 770569.32
 97101.313 -153311.22 779145.05
 33337.558 -153948.60 784339.49
 -33337.481 -153948.61 784339.49
 -97101.243 -153311.26 779145.05
 -152024.51 -152024.58 770569.32
 -191814.43 -150218.16 761998.51
 -210425.80 -148550.31 757399.36
 210823.42 -190462.77 747848.53
 190838.14 -190838.08 753101.34
 150218.16 -191814.43 761998.51
 95510.915 -192684.88 770551.88
 32719.930 -193144.94 775644.53
 -32719.837 -193144.95 775644.53
 -95510.828 -192684.91 770551.88
 -150218.09 -191814.48 761998.51
 -190838.08 -190838.14 753101.34
 -210823.38 -190462.83 747848.52
 213279.69 -213279.64 740961.25
 190462.83 -210823.38 747848.52
 148550.32 -210425.80 757399.36
 93994.830 -210572.40 766044.54
 32134.726 -210692.93 771087.45
 -32134.624 -210692.93 771087.45
 -93994.737 -210572.43 766044.54
 -148550.24 -210425.84 757399.36
 -190462.77 -210823.42 747848.53
 -213279.64 -213279.69 740961.25
 148766.48 148766.52 771840.05
 132648.92 141996.20 776042.10
 103353.75 136899.04 781394.05
 65276.283 133644.75 786052.22
 22283.029 132032.35 788714.73
 -22283.119 132032.34 788714.73
 -65276.367 133644.73 786052.21
 -103353.82 136899.01 781394.04
 -132648.98 141996.16 776042.10
 -148766.52 148766.48 771840.05
 141996.16 132648.98 776042.10
 128566.96 128567.01 779064.22
 101249.88 124888.39 783678.09
 64293.678 122385.57 787964.53
 21994.803 121119.14 790472.25
 -21994.884 121119.13 790472.25
 -64293.751 122385.54 787964.53
 -101249.94 124888.35 783678.09
 -128567.01 128566.96 779064.22
 -141996.20 132648.92 776042.10
 136899.01 103353.82 781394.04
 124888.35 101249.94 783678.09
 99105.662 99105.712 787626.89
 63240.046 97507.520 791513.10
 21682.630 96659.994 793843.00
 -21682.693 96659.983 793843.00
 -63240.107 97507.485 791513.09
 -99105.711 99105.661 787626.90
 -124888.39 101249.88 783678.09
 -136899.04 103353.75 781394.05
 133644.73 65276.367 786052.21
 122385.54 64293.751 787964.53
 97507.486 63240.108 791513.09
 62395.438 62395.476 795118.62
 21422.631 61926.262 797311.86
 -21422.672 61926.249 797311.86
 -62395.475 62395.437 795118.62
 -97507.520 63240.046 791513.10
 -122385.56 64293.676 787964.53
 -133644.75 65276.283 786052.22
 132032.34 22283.118 788714.73
 121119.13 21994.886 790472.25
 96659.983 21682.693 793843.00
 61926.249 21422.673 797311.86
 21274.179 21274.193 799434.06
 -21274.192 21274.178 799434.06
 -61926.262 21422.631 797311.86
 -96659.993 21682.628 793843.00
 -121119.14 21994.804 790472.25
 -132032.35 22283.028 788714.73
 132032.35 -22283.028 788714.73
 121119.14 -21994.804 790472.25
 96659.994 -21682.629 793843.00
 61926.263 -21422.631 797311.86
 21274.193 -21274.179 799434.06
 -21274.178 -21274.193 799434.06
 -61926.248 -21422.674 797311.86
 -96659.982 -21682.693 793843.00
 -121119.13 -21994.887 790472.25
 -132032.34 -22283.119 788714.73
 133644.75 -65276.283 786052.22
 122385.56 -64293.677 787964.53
 97507.521 -63240.046 791513.10
 62395.476 -62395.438 795118.62
 21422.673 -61926.249 797311.86
 -21422.630 -61926.264 797311.86
 -62395.438 -62395.476 795118.62
 -97507.485 -63240.109 791513.09
 -122385.54 -64293.750 787964.53
 -133644.73 -65276.368 786052.21
 136899.04 -103353.75 781394.05
 124888.39 -101249.88 783678.09
 99105.712 -99105.662 787626.89
 63240.108 -97507.485 791513.09
 21682.695 -96659.984 793843.00
 -21682.630 -96659.994 793843.00
 -63240.045 -97507.520 791513.10
 -99105.661 -99105.712 787626.90
 -124888.35 -101249.94 783678.09
 -136899.01 -103353.82 781394.04
 141996.20 -132648.92 776042.10
 128567.01 -128566.96 779064.22
 101249.94 -124888.35 783678.09
 64293.752 -122385.54 787964.53
 21994.885 -121119.13 790472.25
 -21994.802 -121119.14 790472.25
 -64293.677 -122385.57 787964.53
 -101249.88 -124888.39 783678.09
 -128566.96 -128567.01 779064.22
 -141996.16 -132648.98 776042.10
 148766.52 -148766.48 771840.05
 132648.98 -141996.16 776042.10
 103353.82 -136899.01 781394.04
 65276.368 -133644.73 786052.21
 22283.120 -132032.34 788714.73
 -22283.028 -132032.35 788714.73
 -65276.282 -133644.75 786052.22
 -103353.75 -136899.04 781394.05
 -132648.92 -141996.20 776042.10
 -148766.48 -148766.52 771840.05
 85625.935 85625.976 790782.14
 75910.664 79660.264 792396.25
 58888.657 74549.084 794339.07
 37083.689 71105.213 795970.38
 12639.148 69381.597 796885.47
 -12639.231 69381.590 796885.47
 -37083.765 71105.194 795970.38
 -58888.724 74549.054 794339.07
 -75910.716 79660.227 792396.25
 -85625.976 85625.934 790782.14
 79660.227 75910.716 792396.25
 71808.898 71808.946 793528.17
 56390.138 67762.850 795127.88
 35737.282 64906.169 796561.38
 12211.772 63455.581 797385.89
 -12211.844 63455.572 797385.89
 -35737.351 64906.144 796561.38
 -56390.195 67762.813 795127.88
 -71808.946 71808.897 793528.17
 -79660.264 75910.663 792396.25
 74549.055 58888.724 794339.07
 67762.813 56390.195 795127.88
 53693.321 53693.369 796388.13
 34229.525 51678.295 797594.94
 11728.374 50627.005 798310.31
 -11728.431 50626.995 798310.31
 -34229.576 51678.266 797594.94
 -53693.369 53693.321 796388.13
 -67762.849 56390.138 795127.88
 -74549.085 58888.657 794339.07
 71105.194 37083.765 795970.38
 64906.145 35737.352 796561.38
 51678.266 34229.576 797594.94
 33060.249 33060.283 798632.60
 11347.344 32436.271 799261.61
 -11347.379 32436.259 799261.61
 -33060.283 33060.249 798632.60
 -51678.294 34229.524 797594.94
 -64906.170 35737.283 796561.38
 -71105.213 37083.688 795970.38
 69381.590 12639.231 796885.47
 63455.573 12211.843 797385.89
 50626.996 11728.432 798310.31
 32436.260 11347.379 799261.61
 11141.639 11141.651 799844.81
 -11141.651 11141.639 799844.81
 -32436.270 11347.343 799261.61
 -50627.006 11728.376 798310.31
 -63455.580 12211.769 797385.89
 -69381.597 12639.149 796885.47
 69381.597 -12639.149 796885.47
 63455.581 -12211.770 797385.89
 50627.006 -11728.375 798310.31
 32436.271 -11347.344 799261.61
 11141.651 -11141.639 799844.81
 -11141.638 -11141.652 799844.81
 -32436.260 -11347.379 799261.61
 -50626.995 -11728.434 798310.31
 -63455.572 -12211.842 797385.89
 -69381.590 -12639.232 796885.47
 71105.213 -37083.689 795970.38
 64906.170 -35737.282 796561.38
 51678.295 -34229.525 797594.94
 33060.283 -33060.248 798632.60
 11347.381 -32436.260 799261.61
 -11347.344 -32436.271 799261.61
 -33060.248 -33060.284 798632.60
 -51678.266 -34229.576 797594.94
 -64906.145 -35737.353 796561.38
 -71105.194 -37083.764 795970.38
 74549.085 -58888.657 794339.07
 67762.850 -56390.139 795127.88
 53693.369 -53693.321 796388.13
 34229.577 -51678.267 797594.94
 11728.432 -50626.995 798310.31
 -11728.373 -50627.006 798310.31
 -34229.525 -51678.295 797594.94
 -53693.320 -53693.369 796388.13
 -67762.813 -56390.195 795127.88
 -74549.054 -58888.724 794339.07
 79660.265 -75910.664 792396.25
 71808.946 -71808.897 793528.17
 56390.196 -67762.814 795127.88
 35737.351 -64906.144 796561.38
 12211.844 -63455.573 797385.89
 -12211.771 -63455.581 797385.89
 -35737.281 -64906.169 796561.38
 -56390.138 -67762.850 795127.88
 -71808.897 -71808.946 793528.17
 -79660.227 -75910.716 792396.25
 85625.977 -85625.935 790782.14
 75910.716 -79660.227 792396.25
 58888.724 -74549.054 794339.07
 37083.765 -71105.195 795970.38
 12639.231 -69381.590 796885.47
 -12639.148 -69381.597 796885.47
 -37083.689 -71105.213 795970.38
 -58888.657 -74549.085 794339.07
 -75910.663 -79660.264 792396.25
 -85625.935 -85625.976 790782.14
 27704.353 27704.393 799040.01
 24463.726 25430.012 799221.40
 18916.667 23400.325 799433.92
 11888.262 22010.069 799608.80
 4047.8938 21312.111 799705.83
 -4047.9715 21312.104 799705.83
 -11888.335 22010.051 799608.80
 -18916.729 23400.296 799433.91
 -24463.777 25429.976 799221.40
 -27704.393 27704.353 799040.01
 25429.976 24463.777 799221.40
 22850.024 22850.068 799347.08
 17901.804 21212.018 799518.34
 11329.876 20041.795 799668.66
 3869.0206 19446.650 799754.25
 -3869.0892 19446.643 799754.25
 -11329.939 20041.772 799668.66
 -17901.860 21211.983 799518.34
 -22850.068 22850.023 799347.08
 -25430.012 24463.726 799221.40
 23400.297 18916.729 799433.91
 21211.983 17901.861 799518.34
 16783.839 16783.881 799647.80
 10693.264 15944.788 799769.60
 3662.9949 15508.050 799841.29
 -3663.0474 15508.040 799841.29
 -10693.315 15944.761 799769.60
 -16783.881 16783.838 799647.80
 -21212.018 17901.805 799518.34
 -23400.324 18916.666 799433.92
 22010.051 11888.336 799608.80
 20041.772 11329.939 799668.66
 15944.761 10693.315 799769.60
 10200.084 10200.115 799869.94
 3501.1982 9938.5164 799930.60
 -3501.2317 9938.5056 799930.60
 -10200.115 10200.084 799869.94
 -15944.788 10693.266 799769.60
 -20041.794 11329.874 799668.66
 -22010.069 11888.263 799608.80
 21312.104 4047.9711 799705.83
 19446.642 3869.0901 799754.25
 15508.041 3663.0469 799841.29
 9938.5060 3501.2316 799930.60
 3414.5562 3414.5677 799985.43
 -3414.5673 3414.5565 799985.43
 -9938.5168 3501.1986 799930.60
 -15508.050 3662.9928 799841.29
 -19446.650 3869.0229 799754.25
 -21312.110 4047.8926 799705.83
 21312.111 -4047.8933 799705.83
 19446.650 -3869.0214 799754.25
 15508.050 -3662.9944 799841.29
 9938.5162 -3501.1980 799930.60
 3414.5685 -3414.5566 799985.43
 -3414.5569 -3414.5679 799985.43
 -9938.5051 -3501.2323 799930.60
 -15508.041 -3663.0456 799841.29
 -19446.642 -3869.0916 799754.25
 -21312.104 -4047.9706 799705.83
 22010.069 -11888.263 799608.80
 20041.795 -11329.875 799668.66
 15944.788 -10693.265 799769.60
 10200.116 -10200.085 799869.94
 3501.2313 -9938.5054 799930.60
 -3501.1975 -9938.5166 799930.60
 -10200.084 -10200.115 799869.94
 -15944.760 -10693.316 799769.60
 -20041.772 -11329.938 799668.66
 -22010.051 -11888.336 799608.80
 23400.325 -18916.667 799433.92
 21212.018 -17901.804 799518.34
 16783.881 -16783.839 799647.80
 10693.315 -15944.760 799769.60
 3663.0477 -15508.041 799841.29
 -3662.9947 -15508.050 799841.29
 -10693.264 -15944.788 799769.60
 -16783.838 -16783.880 799647.80
 -21211.982 -17901.861 799518.34
 -23400.297 -18916.729 799433.91
 25430.012 -24463.726 799221.40
 22850.069 -22850.024 799347.08
 17901.860 -21211.982 799518.34
 11329.939 -20041.773 799668.66
 3869.0896 -19446.642 799754.25
 -3869.0207 -19446.650 799754.25
 -11329.876 -20041.795 799668.66
 -17901.804 -21212.018 799518.34
 -22850.024 -22850.068 799347.08
 -25429.976 -24463.777 799221.40
 27704.393 -27704.353 799040.01
 24463.777 -25429.976 799221.40
 18916.730 -23400.297 799433.91
 11888.335 -22010.051 799608.80
 4047.9715 -21312.105 799705.83
 -4047.8935 -21312.111 799705.83
 -11888.262 -22010.069 799608.80
 -18916.667 -23400.325 799433.92
 -24463.726 -25430.012 799221.40
 -27704.353 -27704.393 799040.01
 -27704.393 -27704.353 799040.01
 -24463.777 -25429.977 799221.40
 -18916.729 -23400.296 799433.91
 -11888.335 -22010.051 799608.80
 -4047.9714 -21312.104 799705.83
 4047.8934 -21312.110 799705.83
 11888.262 -22010.069 799608.80
 18916.667 -23400.324 799433.92
 24463.726 -25430.013 799221.40
 27704.353 -27704.392 799040.01
 -25430.012 -24463.726 799221.40
 -22850.068 -22850.023 799347.08
 -17901.861 -21211.983 799518.34
 -11329.939 -20041.772 799668.66
 -3869.0898 -19446.642 799754.25
 3869.0211 -19446.650 799754.25
 11329.875 -20041.794 799668.66
 17901.804 -21212.019 799518.34
 22850.024 -22850.067 799347.08
 25429.976 -24463.777 799221.40
 -23400.325 -18916.666 799433.92
 -21212.018 -17901.805 799518.34
 -16783.881 -16783.838 799647.80
 -10693.315 -15944.761 799769.60
 -3663.0470 -15508.041 799841.29
 3662.9940 -15508.050 799841.29
 10693.265 -15944.789 799769.60
 16783.838 -16783.880 799647.80
 21211.982 -17901.862 799518.34
 23400.297 -18916.729 799433.91
 -22010.069 -11888.263 799608.80
 -20041.795 -11329.875 799668.66
 -15944.788 -10693.265 799769.60
 -10200.115 -10200.084 799869.94
 -3501.2323 -9938.5057 799930.60
 3501.1987 -9938.5165 799930.60
 10200.084 -10200.114 799869.94
 15944.761 -10693.316 799769.60
 20041.772 -11329.937 799668.66
 22010.051 -11888.336 799608.80
 -21312.111 -4047.8931 799705.83
 -19446.650 -3869.0216 799754.25
 -15508.050 -3662.9940 799841.29
 -9938.5169 -3501.1982 799930.60
 -3414.5674 -3414.5563 799985.43
 3414.5557 -3414.5679 799985.43
 9938.5060 -3501.2322 799930.60
 15508.040 -3663.0455 799841.29
 19446.642 -3869.0916 799754.25
 21312.104 -4047.9704 799705.83
 -21312.105 4047.9712 799705.83
 -19446.642 3869.0902 799754.25
 -15508.041 3663.0470 799841.29
 -9938.5055 3501.2317 799930.60
 -3414.5569 3414.5679 799985.43
 3414.5681 3414.5565 799985.43
 9938.5161 3501.1988 799930.60
 15508.050 3662.9928 799841.29
 19446.650 3869.0230 799754.25
 21312.110 4047.8926 799705.83
 -22010.051 11888.336 799608.80
 -20041.773 11329.939 799668.66
 -15944.760 10693.315 799769.60
 -10200.084 10200.115 799869.94
 -3501.1983 9938.5164 799930.60
 3501.2317 9938.5059 799930.60
 10200.115 10200.084 799869.94
 15944.788 10693.266 799769.60
 20041.794 11329.874 799668.66
 22010.069 11888.263 799608.80
 -23400.297 18916.729 799433.91
 -21211.982 17901.861 799518.34
 -16783.839 16783.881 799647.80
 -10693.265 15944.788 799769.60
 -3662.9942 15508.050 799841.29
 3663.0468 15508.040 799841.29
 10693.315 15944.761 799769.60
 16783.881 16783.837 799647.80
 21212.018 17901.805 799518.34
 23400.325 18916.666 799433.92
 -25429.976 24463.777 799221.40
 -22850.024 22850.068 799347.08
 -17901.804 21212.019 799518.34
 -11329.876 20041.794 799668.66
 -3869.0214 19446.650 799754.25
 3869.0900 19446.643 799754.25
 11329.939 20041.772 799668.66
 17901.860 21211.983 799518.34
 22850.068 22850.023 799347.08
 25430.012 24463.726 799221.40
 -27704.353 27704.393 799040.01
 -24463.726 25430.013 799221.40
 -18916.667 23400.324 799433.92
 -11888.262 22010.069 799608.80
 -4047.8934 21312.111 799705.83
 4047.9711 21312.104 799705.83
 11888.335 22010.051 799608.80
 18916.729 23400.296 799433.91
 24463.777 25429.977 799221.40
 27704.393 27704.353 799040.01
 -85625.977 -85625.935 790782.14
 -75910.716 -79660.227 792396.25
 -58888.724 -74549.055 794339.07
 -37083.765 -71105.194 795970.38
 -12639.232 -69381.590 796885.47
 12639.148 -69381.597 796885.47
 37083.688 -71105.213 795970.38
 58888.657 -74549.085 794339.07
 75910.663 -79660.264 792396.25
 85625.934 -85625.976 790782.14
 -79660.264 -75910.663 792396.25
 -71808.946 -71808.898 793528.17
 -56390.196 -67762.812 795127.88
 -35737.352 -64906.145 796561.38
 -12211.843 -63455.573 797385.89
 12211.770 -63455.580 797385.89
 35737.282 -64906.170 796561.38
 56390.138 -67762.848 795127.88
 71808.897 -71808.947 793528.17
 79660.227 -75910.715 792396.25
 -74549.085 -58888.657 794339.07
 -67762.850 -56390.137 795127.88
 -53693.369 -53693.322 796388.13
 -34229.576 -51678.265 797594.94
 -11728.433 -50626.995 798310.31
 11728.375 -50627.006 798310.31
 34229.523 -51678.293 797594.94
 53693.321 -53693.370 796388.13
 67762.813 -56390.194 795127.88
 74549.054 -58888.724 794339.07
 -71105.213 -37083.688 795970.38
 -64906.170 -35737.283 796561.38
 -51678.295 -34229.524 797594.94
 -33060.284 -33060.249 798632.60
 -11347.379 -32436.259 799261.61
 11347.342 -32436.270 799261.61
 33060.249 -33060.284 798632.60
 51678.266 -34229.575 797594.94
 64906.144 -35737.353 796561.38
 71105.194 -37083.764 795970.38
 -69381.597 -12639.149 796885.47
 -63455.581 -12211.770 797385.89
 -50627.006 -11728.375 798310.31
 -32436.271 -11347.343 799261.61
 -11141.652 -11141.639 799844.81
 11141.639 -11141.651 799844.81
 32436.259 -11347.379 799261.61
 50626.995 -11728.434 798310.31
 63455.573 -12211.841 797385.89
 69381.590 -12639.232 796885.47
 -69381.590 12639.232 796885.47
 -63455.573 12211.843 797385.89
 -50626.995 11728.433 798310.31
 -32436.260 11347.380 799261.61
 -11141.639 11141.652 799844.81
 11141.651 11141.639 799844.81
 32436.271 11347.343 799261.61
 50627.006 11728.376 798310.31
 63455.580 12211.769 797385.89
 69381.597 12639.149 796885.47
 -71105.195 37083.765 795970.38
 -64906.145 35737.353 796561.38
 -51678.267 34229.576 797594.94
 -33060.249 33060.284 798632.60
 -11347.343 32436.271 799261.61
 11347.379 32436.259 799261.61
 33060.284 33060.250 798632.60
 51678.294 34229.523 797594.94
 64906.169 35737.284 796561.38
 71105.213 37083.688 795970.38
 -74549.054 58888.725 794339.07
 -67762.814 56390.195 795127.88
 -53693.321 53693.370 796388.13
 -34229.524 51678.294 797594.94
 -11728.376 50627.006 798310.31
 11728.433 50626.996 798310.31
 34229.576 51678.265 797594.94
 53693.369 53693.322 796388.13
 67762.850 56390.137 795127.88
 74549.084 58888.658 794339.07
 -79660.228 75910.716 792396.25
 -71808.897 71808.947 793528.17
 -56390.139 67762.849 795127.88
 -35737.283 64906.170 796561.38
 -12211.770 63455.581 797385.89
 12211.842 63455.573 797385.89
 35737.352 64906.146 796561.38
 56390.196 67762.812 795127.88
 71808.946 71808.898 793528.17
 79660.264 75910.663 792396.25
 -85625.935 85625.977 790782.14
 -75910.664 79660.264 792396.25
 -58888.657 74549.085 794339.07
 -37083.689 71105.213 795970.38
 -12639.149 69381.597 796885.47
 12639.231 69381.590 796885.47
 37083.765 71105.194 795970.38
 58888.724 74549.055 794339.07
 75910.716 79660.227 792396.25
 85625.976 85625.935 790782.14
 -148766.52 -148766.48 771840.05
 -132648.98 -141996.16 776042.10
 -103353.82 -136899.01 781394.04
 -65276.368 -133644.73 786052.21
 -22283.119 -132032.34 788714.73
 22283.027 -132032.35 788714.73
 65276.282 -133644.75 786052.22
 103353.75 -136899.04 781394.05
 132648.92 -141996.20 776042.10
 148766.48 -148766.52 771840.05
 -141996.20 -132648.92 776042.10
 -128567.01 -128566.96 779064.22
 -101249.94 -124888.35 783678.09
 -64293.751 -122385.54 787964.53
 -21994.887 -121119.13 790472.25
 21994.804 -121119.14 790472.25
 64293.676 -122385.56 787964.53
 101249.88 -124888.39 783678.09
 128566.96 -128567.01 779064.22
 141996.16 -132648.98 776042.10
 -136899.04 -103353.75 781394.05
 -124888.39 -101249.88 783678.09
 -99105.712 -99105.660 787626.90
 -63240.109 -97507.486 791513.09
 -21682.693 -96659.983 793843.00
 21682.627 -96659.993 793843.00
 63240.046 -97507.521 791513.10
 99105.661 -99105.710 787626.90
 124888.35 -101249.94 783678.09
 136899.01 -103353.82 781394.04
 -133644.75 -65276.283 786052.22
 -122385.57 -64293.676 787964.53
 -97507.521 -63240.047 791513.10
 -62395.475 -62395.437 795118.62
 -21422.675 -61926.249 797311.86
 21422.632 -61926.263 797311.86
 62395.436 -62395.474 795118.62
 97507.485 -63240.109 791513.09
 122385.54 -64293.749 787964.53
 133644.73 -65276.368 786052.21
 -132032.35 -22283.028 788714.73
 -121119.14 -21994.804 790472.25
 -96659.994 -21682.628 793843.00
 -61926.264 -21422.631 797311.86
 -21274.193 -21274.178 799434.06
 21274.177 -21274.192 799434.06
 61926.249 -21422.674 797311.86
 96659.982 -21682.692 793843.00
 121119.13 -21994.886 790472.25
 132032.34 -22283.118 788714.73
 -132032.34 22283.119 788714.73
 -121119.13 21994.887 790472.25
 -96659.983 21682.693 793843.00
 -61926.250 21422.674 797311.86
 -21274.179 21274.193 799434.06
 21274.192 21274.178 799434.06
 61926.263 21422.632 797311.86
 96659.993 21682.628 793843.00
 121119.14 21994.805 790472.25
 132032.35 22283.028 788714.73
 -133644.73 65276.368 786052.21
 -122385.54 64293.750 787964.53
 -97507.486 63240.109 791513.09
 -62395.438 62395.475 795118.62
 -21422.632 61926.263 797311.86
 21422.674 61926.250 797311.86
 62395.475 62395.437 795118.62
 97507.520 63240.048 791513.10
 122385.56 64293.676 787964.53
 133644.75 65276.283 786052.22
 -136899.01 103353.82 781394.04
 -124888.35 101249.95 783678.09
 -99105.662 99105.711 787626.90
 -63240.047 97507.522 791513.10
 -21682.629 96659.994 793843.00
 21682.692 96659.983 793843.00
 63240.108 97507.487 791513.09
 99105.711 99105.660 787626.90
 124888.39 101249.88 783678.09
 136899.04 103353.75 781394.05
 -141996.16 132648.98 776042.10
 -128566.96 128567.01 779064.22
 -101249.88 124888.40 783678.09
 -64293.677 122385.56 787964.53
 -21994.805 121119.14 790472.25
 21994.886 121119.13 790472.25
 64293.750 122385.54 787964.53
 101249.94 124888.35 783678.09
 128567.01 128566.96 779064.22
 141996.20 132648.92 776042.10
 -148766.48 148766.52 771840.05
 -132648.92 141996.20 776042.10
 -103353.75 136899.04 781394.05
 -65276.283 133644.75 786052.22
 -22283.028 132032.35 788714.73
 22283.118 132032.34 788714.73
 65276.367 133644.73 786052.21
 103353.82 136899.01 781394.04
 132648.98 141996.16 776042.10
 148766.52 148766.48 771840.05
 -213279.69 -213279.64 740961.25
 -190462.83 -210823.38 747848.52
 -148550.32 -210425.80 757399.36
 -93994.829 -210572.40 766044.54
 -32134.726 -210692.93 771087.45
 32134.625 -210692.93 771087.45
 93994.737 -210572.43 766044.54
 148550.24 -210425.84 757399.36
 190462.77 -210823.42 747848.53
 213279.64 -213279.69 740961.25
 -210823.42 -190462.77 747848.53
 -190838.14 -190838.08 753101.34
 -150218.16 -191814.43 761998.51
 -95510.916 -192684.88 770551.88
 -32719.928 -193144.94 775644.53
 32719.835 -193144.95 775644.53
 95510.829 -192684.91 770551.88
 150218.09 -191814.47 761998.51
 190838.08 -190838.14 753101.34
 210823.38 -190462.83 747848.52
 -210425.84 -148550.24 757399.36
 -191814.47 -150218.09 761998.51
 -152024.58 -152024.52 770569.32
 -97101.312 -153311.22 779145.05
 -33337.560 -153948.60 784339.49
 33337.483 -153948.61 784339.49
 97101.242 -153311.26 779145.05
 152024.51 -152024.58 770569.32
 191814.43 -150218.16 761998.51
 210425.80 -148550.31 757399.36
 -210572.43 -93994.737 766044.54
 -192684.91 -95510.829 770551.88
 -153311.26 -97101.243 779145.05
 -98201.867 -98201.819 787853.28
 -33764.373 -98738.176 793165.01
 33764.323 -98738.191 793165.01
 98201.819 -98201.866 787853.28
 153311.22 -97101.311 779145.05
 192684.88 -95510.915 770551.88
 210572.40 -93994.828 766044.54
 -210692.93 -32134.625 771087.45
 -193144.95 -32719.836 775644.53
 -153948.61 -33337.483 784339.49
 -98738.192 -33764.324 793165.01
 -33971.719 -33971.699 798556.10
 33971.700 -33971.717 798556.10
 98738.175 -33764.372 793165.01
 153948.60 -33337.558 784339.49
 193144.94 -32719.927 775644.53
 210692.92 -32134.725 771087.45
 -210692.93 32134.726 771087.45
 -193144.94 32719.928 775644.53
 -153948.60 33337.559 784339.49
 -98738.177 33764.374 793165.01
 -33971.701 33971.718 798556.10
 33971.717 33971.701 798556.10
 98738.191 33764.324 793165.01
 153948.61 33337.484 784339.49
 193144.95 32719.836 775644.53
 210692.93 32134.626 771087.45
 -210572.40 93994.829 766044.54
 -192684.88 95510.916 770551.88
 -153311.22 97101.312 779145.05
 -98201.820 98201.867 787853.28
 -33764.324 98738.192 793165.01
 33764.372 98738.176 793165.01
 98201.866 98201.821 787853.28
 153311.26 97101.243 779145.05
 192684.91 95510.830 770551.88
 210572.43 93994.738 766044.54
 -210425.80 148550.32 757399.36
 -191814.43 150218.16 761998.51
 -152024.52 152024.58 770569.32
 -97101.244 153311.26 779145.05
 -33337.484 153948.61 784339.49
 33337.558 153948.60 784339.49
 97101.311 153311.22 779145.05
 152024.57 152024.52 770569.32
 191814.47 150218.09 761998.51
 210425.84 148550.24 757399.36
 -210823.38 190462.83 747848.52
 -190838.08 190838.14 753101.34
 -150218.09 191814.47 761998.51
 -95510.830 192684.91 770551.88
 -32719.837 193144.95 775644.53
 32719.927 193144.94 775644.53
 95510.914 192684.88 770551.88
 150218.16 191814.43 761998.51
 190838.14 190838.08 753101.34
 210823.42 190462.77 747848.53
 -213279.64 213279.69 740961.25
 -190462.77 210823.42 747848.53
 -148550.24 210425.84 757399.36
 -93994.738 210572.43 766044.54
 -32134.626 210692.93 771087.45
 32134.725 210692.93 771087.45
 93994.829 210572.40 766044.54
 148550.31 210425.80 757399.36
 190462.83 210823.38 747848.52
 213279.69 213279.64 740961.25
 -265715.65 -265715.60 706250.96
 -234022.51 -272346.55 714885.18
 -181419.02 -279083.64 727460.97
 -114719.05 -284014.59 739036.71
 -39250.107 -286576.60 745877.52
 39249.999 -286576.61 745877.53
 114718.95 -284014.62 739036.71
 181418.94 -279083.68 727460.97