# OOMMF OVF 2.0
#
# Segment count: 1
#
# Begin: Segment
# Begin: Header
#
# Title: Oxs_MinDriver::Magnetization
# Desc: Oxs vector field output
# Desc:  MIF source file: /home/ryan/Git/joommf/tools/omfvis/cube_example.mif
# Desc:  Iteration: 2897, State id: 5994
# Desc:  Stage: 8, Stage iteration: 92
# Desc:  Stage simulation time: 0 s
# Desc:  Total simulation time: -2 s
# meshunit: m
# meshtype: rectangular
# xbase: 2.5000000000000001e-09
# ybase: 2.5000000000000001e-09
# zbase: 2.5000000000000001e-09
# xnodes: 10
# ynodes: 10
# znodes: 10
# xstepsize: 5.0000000000000001e-09
# ystepsize: 5.0000000000000001e-09
# zstepsize: 5.0000000000000001e-09
# xmin: 0
# ymin: 0
# zmin: 0
# xmax: 4.9999999999999998e-08
# ymax: 4.9999999999999998e-08
# zmax: 4.9999999999999998e-08
# valuedim: 3
# valuelabels: Magnetization_x Magnetization_y Magnetization_z
# valueunits: A/m A/m A/m
#
# End: Header
#
# Begin: Data Text
 637999.80 -207723.35 435668.75
 679712.38 -166030.13 387846.72
 713152.81 -88620.125 351510.38
 724987.47 14339.115 337916.50
 709327.23 135011.32 344422.45
 661430.40 265149.95 363600.50
 578220.58 393651.21 388200.57
 461538.98 507182.73 412004.18
 325199.05 591852.66 428900.93
 207723.34 637999.81 435668.75
 591852.65 -325199.05 428900.94
 640818.37 -271481.20 394524.74
 684931.24 -175657.71 374183.86
 705507.87 -45377.794 374432.24
 691026.40 111439.15 387380.73
 633924.76 279280.04 400177.53
 535387.78 435130.12 404995.92
 407205.69 559110.52 401968.84
 271481.19 640818.38 394524.74
 166030.13 679712.38 387846.72
 507182.73 -461538.98 412004.18
 559110.52 -407205.70 401968.84
 613011.44 -302032.43 415924.73
 644478.75 -143948.05 451581.77
 631348.83 63182.031 487243.96
 559491.50 288650.36 493609.39
 439788.45 481685.34 463211.99
 302032.43 613011.44 415924.73
 175657.71 684931.24 374183.86
 88620.124 713152.81 351510.38
 393651.21 -578220.58 388200.58
 435130.12 -535387.79 404995.93
 481685.33 -439788.45 463212.00
 509727.43 -270758.13 553956.66
 489206.28 -15752.184 632794.66
 400959.51 276805.34 634515.78
 270758.12 509727.44 553956.66
 143948.04 644478.76 451581.77
 45377.792 705507.87 374432.23
 -14339.116 724987.47 337916.49
 265149.95 -661430.40 363600.50
 279280.03 -633924.76 400177.53
 288650.36 -559491.50 493609.39
 276805.33 -400959.52 634515.78
 222181.92 -122129.11 758761.94
 122129.11 222181.93 758761.93
 15752.180 489206.29 632794.65
 -63182.033 631348.84 487243.96
 -111439.15 691026.41 387380.72
 -135011.32 709327.24 344422.44
 135011.31 -709327.23 344422.44
 111439.14 -691026.40 387380.73
 63182.023 -631348.84 487243.96
 -15752.193 -489206.29 632794.66
 -122129.12 -222181.92 758761.93
 -222181.93 122129.12 758761.93
 -276805.35 400959.52 634515.77
 -288650.36 559491.51 493609.38
 -279280.04 633924.77 400177.52
 -265149.95 661430.41 363600.50
 14339.110 -724987.47 337916.50
 -45377.799 -705507.87 374432.24
 -143948.05 -644478.75 451581.77
 -270758.13 -509727.43 553956.66
 -400959.52 -276805.34 634515.77
 -489206.29 15752.190 632794.65
 -509727.44 270758.13 553956.65
 -481685.34 439788.46 463211.99
 -435130.12 535387.79 404995.92
 -393651.21 578220.58 388200.57
 -88620.130 -713152.81 351510.38
 -175657.71 -684931.24 374183.86
 -302032.44 -613011.44 415924.73
 -439788.46 -481685.34 463211.99
 -559491.51 -288650.36 493609.38
 -631348.84 -63182.026 487243.96
 -644478.76 143948.05 451581.76
 -613011.44 302032.44 415924.72
 -559110.52 407205.70 401968.83
 -507182.73 461538.98 412004.18
 -166030.13 -679712.38 387846.72
 -271481.20 -640818.37 394524.74
 -407205.70 -559110.52 401968.84
 -535387.79 -435130.12 404995.92
 -633924.77 -279280.03 400177.52
 -691026.41 -111439.14 387380.72
 -705507.87 45377.797 374432.23
 -684931.25 175657.71 374183.86
 -640818.38 271481.20 394524.74
 -591852.66 325199.06 428900.93
 -207723.35 -637999.80 435668.75
 -325199.06 -591852.65 428900.93
 -461538.99 -507182.73 412004.18
 -578220.59 -393651.20 388200.57
 -661430.41 -265149.95 363600.50
 -709327.24 -135011.31 344422.44
 -724987.47 -14339.111 337916.49
 -713152.81 88620.129 351510.38
 -679712.38 166030.13 387846.71
 -637999.81 207723.35 435668.75
 603853.54 -242713.31 465243.11
 650848.24 -199099.14 420423.71
 691856.23 -122450.76 382545.11
 711348.66 -22941.179 365317.39
 704238.47 92773.968 368023.33
 666468.87 218580.55 384761.99
 594159.97 345711.72 409215.52
 487065.51 461954.83 435160.80
 356944.57 552357.93 455512.12
 242713.31 603853.54 465243.11
 552357.93 -356944.57 455512.13
 605891.55 -299523.18 427996.84
 656067.33 -204404.68 409627.14
 683000.49 -78717.402 409040.22
 677019.92 71299.044 420191.00
 631535.72 233493.94 432022.23
 545733.65 388537.86 437279.22
 428170.03 517025.97 435148.91
 299523.18 605891.55 427996.84
 199099.14 650848.25 420423.71
 461954.83 -487065.51 435160.81
 517025.96 -428170.03 435148.92
 573799.54 -322888.81 454419.30
 608440.47 -170063.93 490793.70
 603507.30 26511.737 524476.94
 547746.52 241947.19 530504.77
 446741.76 434300.32 501801.79
 322888.81 573799.55 454419.29
 204404.68 656067.33 409627.13
 122450.76 691856.24 382545.11
 345711.71 -594159.97 409215.52
 388537.85 -545733.65 437279.22
 434300.31 -446741.76 501801.79
 461569.89 -280364.80 590210.83
 449078.50 -40683.715 660812.63
 383981.42 231767.88 662451.45
 280364.79 461569.90 590210.82
 170063.92 608440.47 490793.70
 78717.401 683000.49 409040.22
 22941.178 711348.66 365317.38
 218580.55 -666468.87 384761.99
 233493.93 -631535.73 432022.23
 241947.19 -547746.52 530504.77
 231767.87 -383981.42 662451.45
 191481.74 -120953.07 767271.20
 120953.07 191481.75 767271.20
 40683.712 449078.51 660812.63
 -26511.738 603507.31 524476.94
 -71299.046 677019.92 420191.00
 -92773.968 704238.47 368023.32
 92773.963 -704238.47 368023.33
 71299.039 -677019.92 420191.00
 26511.730 -603507.30 524476.94
 -40683.724 -449078.50 660812.63
 -120953.08 -191481.75 767271.20
 -191481.76 120953.08 767271.20
 -231767.88 383981.43 662451.44
 -241947.19 547746.52 530504.76
 -233493.94 631535.73 432022.23
 -218580.55 666468.87 384761.98
 -22941.184 -711348.66 365317.39
 -78717.407 -683000.49 409040.22
 -170063.93 -608440.47 490793.70
 -280364.80 -461569.89 590210.82
 -383981.43 -231767.87 662451.44
 -449078.51 40683.721 660812.63
 -461569.90 280364.80 590210.82
 -434300.32 446741.76 501801.79
 -388537.86 545733.66 437279.21
 -345711.72 594159.97 409215.51
 -122450.76 -691856.23 382545.11
 -204404.69 -656067.33 409627.13
 -322888.82 -573799.54 454419.30
 -446741.77 -434300.31 501801.79
 -547746.52 -241947.19 530504.76
 -603507.31 -26511.731 524476.93
 -608440.47 170063.93 490793.70
 -573799.55 322888.81 454419.29
 -517025.96 428170.03 435148.91
 -461954.83 487065.51 435160.80
 -199099.14 -650848.24 420423.71
 -299523.19 -605891.55 427996.84
 -428170.04 -517025.96 435148.91
 -545733.66 -388537.85 437279.21
 -631535.73 -233493.93 432022.23
 -677019.92 -71299.040 420191.00
 -683000.49 78717.405 409040.21
 -656067.33 204404.68 409627.13
 -605891.55 299523.19 427996.83
 -552357.93 356944.57 455512.12
 -242713.31 -603853.54 465243.11
 -356944.57 -552357.92 455512.12
 -487065.51 -461954.83 435160.80
 -594159.97 -345711.71 409215.52
 -666468.87 -218580.55 384761.98
 -704238.47 -92773.964 368023.32
 -711348.66 22941.182 365317.38
 -691856.24 122450.76 382545.11
 -650848.25 199099.14 420423.70
 -603853.54 242713.31 465243.11
 556663.49 -291358.27 495213.21
 610985.07 -243933.32 455185.44
 661618.87 -165306.93 418251.23
 690660.35 -66904.939 398135.67
 693526.23 44841.758 396245.61
 667417.71 165471.94 408867.50
 608744.55 288860.77 431265.03
 515943.49 405078.92 457944.73
 398116.27 499628.60 481533.70
 291358.27 556663.49 495213.20
 499628.59 -398116.27 481533.70
 558230.30 -338320.22 462513.09
 616347.76 -242445.25 448704.52
 652115.42 -119500.67 447733.26
 656941.56 24165.657 455898.90
 625718.70 179111.58 465182.92
 556691.63 330619.74 469877.67
 455107.53 461817.58 468616.75
 338320.22 558230.30 462513.09
 243933.32 610985.07 455185.44
 405078.92 -515943.49 457944.74
 461817.57 -455107.53 468616.75
 522632.83 -349148.36 494924.58
 563239.51 -200304.65 531638.32
 569283.93 -14301.452 561881.91
 532170.35 188788.91 566704.04
 453806.44 376787.61 540454.26
 349148.36 522632.84 494924.58
 242445.25 616347.76 448704.51
 165306.93 661618.87 418251.22
 288860.77 -608744.55 431265.04
 330619.73 -556691.63 469877.67
 376787.61 -453806.44 540454.26
 407192.27 -289712.50 624708.83
 406280.85 -65606.396 686026.00
 365077.85 185198.29 687327.98
 289712.50 407192.28 624708.82
 200304.65 563239.51 531638.32
 119500.67 652115.42 447733.25
 66904.939 690660.35 398135.66
 165471.94 -667417.71 408867.50
 179111.58 -625718.70 465182.92
 188788.91 -532170.35 566704.04
 185198.28 -365077.85 687327.99
 162213.93 -119421.52 774225.51
 119421.52 162213.94 774225.51
 65606.396 406280.86 686025.99
 14301.450 569283.93 561881.91
 -24165.655 656941.57 455898.89
 -44841.759 693526.23 396245.61
 44841.754 -693526.23 396245.61
 24165.651 -656941.56 455898.89
 -14301.457 -569283.92 561881.91
 -65606.404 -406280.85 686026.00
 -119421.53 -162213.93 774225.51
 -162213.94 119421.53 774225.51
 -185198.29 365077.85 687327.98
 -188788.91 532170.36 566704.03
 -179111.58 625718.70 465182.92
 -165471.94 667417.72 408867.49
 -66904.943 -690660.35 398135.67
 -119500.68 -652115.42 447733.26
 -200304.66 -563239.51 531638.32
 -289712.51 -407192.27 624708.83
 -365077.85 -185198.28 687327.98
 -406280.86 65606.403 686025.99
 -407192.28 289712.51 624708.82
 -376787.62 453806.44 540454.26
 -330619.74 556691.63 469877.66
 -288860.77 608744.55 431265.03
 -165306.94 -661618.87 418251.23
 -242445.25 -616347.76 448704.52
 -349148.36 -522632.83 494924.58
 -453806.45 -376787.61 540454.26
 -532170.36 -188788.91 566704.03
 -569283.93 14301.456 561881.91
 -563239.51 200304.65 531638.31
 -522632.84 349148.36 494924.58
 -461817.58 455107.54 468616.75
 -405078.92 515943.50 457944.73
 -243933.32 -610985.07 455185.44
 -338320.22 -558230.30 462513.09
 -455107.54 -461817.57 468616.75
 -556691.63 -330619.73 469877.67
 -625718.70 -179111.58 465182.92
 -656941.57 -24165.651 455898.89
 -652115.42 119500.68 447733.25
 -616347.76 242445.25 448704.51
 -558230.30 338320.22 462513.09
 -499628.60 398116.27 481533.70
 -291358.28 -556663.48 495213.20
 -398116.27 -499628.59 481533.70
 -515943.50 -405078.92 457944.73
 -608744.55 -288860.77 431265.03
 -667417.72 -165471.93 408867.50
 -693526.23 -44841.755 396245.61
 -690660.35 66904.942 398135.66
 -661618.87 165306.94 418251.22
 -610985.07 243933.32 455185.43
 -556663.49 291358.28 495213.20
 503539.10 -343495.94 518130.21
 567028.11 -291499.74 483225.65
 628719.10 -208872.47 448424.56
 668169.02 -108917.21 426247.81
 681020.09 1126.4400 419774.19
 665922.69 117421.99 427503.27
 620460.56 235823.05 446560.39
 542884.88 348900.55 472804.84
 439982.69 443827.04 499432.48
 343495.94 503539.11 518130.20
 443827.03 -439982.68 499432.48
 508490.27 -378601.99 487953.05
 575826.61 -280847.13 479112.31
 621659.95 -158034.26 478083.76
 637534.75 -18017.814 482933.53
 619700.47 130812.00 488732.59
 566683.69 277275.89 491922.42
 481735.44 407823.09 491539.72
 378601.99 508490.27 487953.05
 291499.75 567028.11 483225.64
 348900.54 -542884.88 472804.84
 407823.08 -481735.44 491539.73
 474155.59 -375080.14 523919.24
 522797.50 -228124.94 560929.39
 540345.39 -49217.260 587881.38
 519717.23 143918.11 590915.88
 461281.94 326047.69 566490.84
 375080.15 474155.59 523919.23
 280847.13 575826.62 479112.30
 208872.47 628719.11 448424.55
 235823.05 -620460.56 446560.39
 277275.89 -566683.69 491922.43
 326047.69 -461281.94 566490.84
 362719.58 -298914.23 647367.59
 373837.07 -85824.018 702054.19
 351808.16 149036.09 702865.04
 298914.23 362719.58 647367.58
 228124.94 522797.51 560929.39
 158034.26 621659.96 478083.75
 108917.21 668169.03 426247.80
 117421.99 -665922.69 427503.28
 130812.00 -619700.47 488732.59
 143918.10 -519717.23 590915.89
 149036.08 -351808.16 702865.04
 141332.74 -119155.14 778348.96
 119155.14 141332.75 778348.96
 85824.017 373837.08 702054.18
 49217.263 540345.40 587881.38
 18017.813 637534.76 482933.53
 -1126.4385 681020.09 419774.18
 1126.4366 -681020.09 419774.19
 -18017.817 -637534.75 482933.53
 -49217.266 -540345.39 587881.38
 -85824.023 -373837.07 702054.19
 -119155.14 -141332.74 778348.96
 -141332.75 119155.15 778348.96
 -149036.08 351808.17 702865.04
 -143918.11 519717.23 590915.88
 -130812.00 619700.47 488732.59
 -117421.99 665922.69 427503.27
 -108917.21 -668169.02 426247.81
 -158034.26 -621659.95 478083.76
 -228124.94 -522797.50 560929.39
 -298914.23 -362719.58 647367.58
 -351808.16 -149036.08 702865.04
 -373837.07 85824.024 702054.19
 -362719.59 298914.23 647367.58
 -326047.69 461281.95 566490.84
 -277275.89 566683.69 491922.42
 -235823.05 620460.56 446560.39
 -208872.47 -628719.10 448424.56
 -280847.14 -575826.61 479112.31
 -375080.15 -474155.58 523919.23
 -461281.95 -326047.69 566490.84
 -519717.23 -143918.10 590915.88
 -540345.40 49217.266 587881.38
 -522797.50 228124.94 560929.39
 -474155.59 375080.15 523919.23
 -407823.08 481735.44 491539.72
 -348900.55 542884.88 472804.84
 -291499.75 -567028.10 483225.65
 -378602.00 -508490.26 487953.05
 -481735.44 -407823.08 491539.72
 -566683.69 -277275.89 491922.42
 -619700.47 -130811.99 488732.59
 -637534.76 18017.818 482933.53
 -621659.96 158034.26 478083.75
 -575826.61 280847.14 479112.30
 -508490.27 378602.00 487953.04
 -443827.03 439982.69 499432.48
 -343495.94 -503539.10 518130.21
 -439982.69 -443827.03 499432.48
 -542884.88 -348900.54 472804.84
 -620460.56 -235823.05 446560.39
 -665922.69 -117421.99 427503.27
 -681020.09 -1126.4362 419774.18
 -668169.03 108917.22 426247.81
 -628719.10 208872.47 448424.55
 -567028.11 291499.75 483225.64
 -503539.11 343495.94 518130.20
 449312.90 -396047.48 530343.58
 523246.84 -339819.47 500734.93
 597380.42 -252311.26 468482.30
 648174.53 -148762.48 444679.10
 671102.77 -37945.496 433798.58
 666181.77 75943.313 436387.97
 632572.22 189761.17 451489.84
 569152.89 298080.75 476668.49
 481196.17 390161.50 506185.98
 396047.49 449312.90 530343.57
 390161.50 -481196.17 506185.99
 461787.65 -419074.66 501127.32
 539664.74 -319113.08 496919.32
 596758.40 -194365.13 496086.29
 623841.85 -54825.144 497810.75
 618077.71 90616.524 499768.53
 578915.56 232583.58 500761.07
 508927.76 360379.37 501117.99
 419074.67 461787.65 501127.32
 339819.47 523246.84 500734.92
 298080.75 -569152.89 476668.50
 360379.37 -508927.76 501118.00
 434043.46 -402093.86 538448.51
 492607.83 -255228.90 576364.24
 521959.58 -79058.128 601089.02
 515398.39 108728.52 602115.11
 472932.97 286292.68 578248.14
 402093.86 434043.47 538448.51
 319113.08 539664.74 496919.31
 252311.26 597380.42 468482.30
 189761.17 -632572.22 451489.85
 232583.58 -578915.56 500761.07
 286292.68 -472932.97 578248.14
 331493.89 -311475.59 658099.35
 354534.69 -103590.61 709629.58
 347675.78 123128.89 709901.98
 311475.59 331493.90 658099.35
 255228.90 492607.84 576364.23
 194365.13 596758.40 496086.28
 148762.48 648174.54 444679.09
 75943.311 -666181.77 436387.97
 90616.522 -618077.71 499768.54
 108728.51 -515398.39 602115.11
 123128.89 -347675.78 709901.99
 128441.08 -121650.42 780194.89
 121650.42 128441.09 780194.89
 103590.62 354534.70 709629.57
 79058.128 521959.59 601089.01
 54825.148 623841.86 497810.75
 37945.497 671102.77 433798.58
 -37945.498 -671102.77 433798.59
 -54825.149 -623841.85 497810.75
 -79058.130 -521959.58 601089.02
 -103590.62 -354534.69 709629.58
 -121650.42 -128441.08 780194.89
 -128441.08 121650.42 780194.89
 -123128.89 347675.79 709901.98
 -108728.51 515398.40 602115.11
 -90616.524 618077.72 499768.53
 -75943.312 666181.78 436387.96
 -148762.48 -648174.53 444679.10
 -194365.14 -596758.40 496086.29
 -255228.91 -492607.83 576364.24
 -311475.59 -331493.89 658099.35
 -347675.78 -123128.89 709901.98
 -354534.69 103590.62 709629.57
 -331493.89 311475.60 658099.35
 -286292.68 472932.97 578248.13
 -232583.58 578915.56 500761.07
 -189761.17 632572.23 451489.84
 -252311.26 -597380.41 468482.30
 -319113.08 -539664.74 496919.32
 -402093.86 -434043.46 538448.51
 -472932.97 -286292.67 578248.14
 -515398.39 -108728.51 602115.11
 -521959.58 79058.133 601089.02
 -492607.84 255228.91 576364.23
 -434043.46 402093.86 538448.51
 -360379.37 508927.77 501117.99
 -298080.75 569152.89 476668.49
 -339819.47 -523246.84 500734.93
 -419074.67 -461787.65 501127.32
 -508927.76 -360379.37 501117.99
 -578915.56 -232583.58 500761.08
 -618077.72 -90616.520 499768.53
 -623841.86 54825.149 497810.75
 -596758.40 194365.14 496086.29
 -539664.74 319113.08 496919.31
 -461787.65 419074.67 501127.32
 -390161.50 481196.17 506185.98
 -396047.49 -449312.90 530343.58
 -481196.17 -390161.49 506185.99
 -569152.89 -298080.75 476668.50
 -632572.22 -189761.17 451489.85
 -666181.77 -75943.310 436387.97
 -671102.77 37945.500 433798.58
 -648174.53 148762.48 444679.09
 -597380.42 252311.26 468482.30
 -523246.84 339819.48 500734.92
 -449312.90 396047.49 530343.57
 396047.49 -449312.90 530343.58
 481196.17 -390161.49 506185.99
 569152.89 -298080.75 476668.50
 632572.22 -189761.17 451489.85
 666181.77 -75943.310 436387.97
 671102.77 37945.500 433798.58
 648174.53 148762.48 444679.10
 597380.42 252311.26 468482.30
 523246.84 339819.48 500734.92
 449312.90 396047.49 530343.57
 339819.47 -523246.84 500734.93
 419074.67 -461787.64 501127.32
 508927.76 -360379.37 501118.00
 578915.56 -232583.58 500761.07
 618077.72 -90616.520 499768.53
 623841.85 54825.149 497810.75
 596758.40 194365.14 496086.29
 539664.74 319113.08 496919.31
 461787.65 419074.67 501127.32
 390161.50 481196.17 506185.98
 252311.26 -597380.41 468482.30
 319113.08 -539664.74 496919.32
 402093.86 -434043.46 538448.51
 472932.97 -286292.67 578248.14
 515398.39 -108728.51 602115.11
 521959.58 79058.133 601089.02
 492607.83 255228.91 576364.23
 434043.47 402093.86 538448.51
 360379.37 508927.77 501117.99
 298080.75 569152.89 476668.49
 148762.48 -648174.53 444679.10
 194365.14 -596758.40 496086.29
 255228.90 -492607.83 576364.24
 311475.59 -331493.89 658099.35
 347675.78 -123128.89 709901.98
 354534.69 103590.62 709629.58
 331493.89 311475.60 658099.35
 286292.68 472932.97 578248.13
 232583.58 578915.56 500761.07
 189761.17 632572.23 451489.84
 37945.499 -671102.77 433798.59
 54825.146 -623841.85 497810.75
 79058.132 -521959.58 601089.02
 103590.62 -354534.69 709629.58
 121650.42 -128441.08 780194.89
 128441.08 121650.42 780194.89
 123128.89 347675.79 709901.98
 108728.52 515398.40 602115.11
 90616.521 618077.72 499768.53
 75943.313 666181.78 436387.96
 -75943.312 -666181.77 436387.97
 -90616.520 -618077.71 499768.54
 -108728.51 -515398.39 602115.11
 -123128.89 -347675.78 709901.99
 -128441.08 -121650.42 780194.89
 -121650.42 128441.09 780194.89
 -103590.62 354534.70 709629.57
 -79058.131 521959.59 601089.01
 -54825.146 623841.86 497810.75
 -37945.498 671102.77 433798.58
 -189761.17 -632572.22 451489.85
 -232583.58 -578915.56 500761.08
 -286292.68 -472932.97 578248.14
 -331493.89 -311475.59 658099.35
 -354534.69 -103590.61 709629.58
 -347675.78 123128.89 709901.98
 -311475.59 331493.90 658099.35
 -255228.90 492607.84 576364.23
 -194365.14 596758.40 496086.28
 -148762.48 648174.54 444679.09
 -298080.75 -569152.89 476668.50
 -360379.37 -508927.76 501118.00
 -434043.47 -402093.86 538448.51
 -492607.83 -255228.90 576364.24
 -521959.58 -79058.129 601089.02
 -515398.39 108728.52 602115.11
 -472932.97 286292.68 578248.14
 -402093.86 434043.47 538448.51
 -319113.08 539664.74 496919.31
 -252311.26 597380.42 468482.30
 -390161.50 -481196.17 506185.99
 -461787.65 -419074.66 501127.32
 -539664.74 -319113.08 496919.32
 -596758.40 -194365.13 496086.29
 -623841.85 -54825.144 497810.75
 -618077.71 90616.524 499768.53
 -578915.56 232583.58 500761.07
 -508927.76 360379.37 501117.99
 -419074.67 461787.65 501127.32
 -339819.47 523246.84 500734.92
 -449312.90 -396047.48 530343.58
 -523246.84 -339819.47 500734.93
 -597380.42 -252311.26 468482.30
 -648174.53 -148762.48 444679.10
 -671102.77 -37945.496 433798.58
 -666181.77 75943.314 436387.97
 -632572.22 189761.17 451489.84
 -569152.89 298080.75 476668.49
 -481196.17 390161.50 506185.98
 -396047.49 449312.90 530343.57
 343495.94 -503539.10 518130.21
 439982.69 -443827.03 499432.48
 542884.88 -348900.54 472804.84
 620460.56 -235823.05 446560.39
 665922.69 -117421.99 427503.27
 681020.09 -1126.4362 419774.18
 668169.03 108917.22 426247.81
 628719.10 208872.47 448424.55
 567028.11 291499.75 483225.64
 503539.11 343495.94 518130.20
 291499.75 -567028.10 483225.65
 378602.00 -508490.26 487953.05
 481735.44 -407823.08 491539.72
 566683.69 -277275.89 491922.43
 619700.47 -130811.99 488732.59
 637534.76 18017.818 482933.53
 621659.95 158034.26 478083.75
 575826.61 280847.14 479112.30
 508490.27 378602.00 487953.04
 443827.03 439982.69 499432.48
 208872.47 -628719.10 448424.56
 280847.14 -575826.61 479112.31
 375080.15 -474155.58 523919.23
 461281.95 -326047.69 566490.84
 519717.23 -143918.10 590915.88
 540345.39 49217.267 587881.38
 522797.51 228124.94 560929.39
 474155.59 375080.15 523919.23
 407823.08 481735.44 491539.72
 348900.55 542884.88 472804.84
 108917.22 -668169.02 426247.81
 158034.26 -621659.95 478083.76
 228124.94 -522797.50 560929.39
 298914.23 -362719.58 647367.58
 351808.16 -149036.08 702865.04
 373837.08 85824.023 702054.18
 362719.58 298914.23 647367.58
 326047.69 461281.95 566490.84
 277275.89 566683.70 491922.42
 235823.05 620460.56 446560.39
 -1126.4375 -681020.09 419774.19
 18017.819 -637534.75 482933.53
 49217.264 -540345.39 587881.38
 85824.024 -373837.07 702054.19
 119155.14 -141332.74 778348.96
 141332.75 119155.15 778348.96
 149036.08 351808.17 702865.04
 143918.11 519717.23 590915.88
 130812.00 619700.47 488732.59
 117421.99 665922.69 427503.27
 -117421.99 -665922.69 427503.28
 -130812.00 -619700.47 488732.60
 -143918.10 -519717.23 590915.89
 -149036.08 -351808.16 702865.04
 -141332.74 -119155.14 778348.96
 -119155.14 141332.75 778348.96
 -85824.019 373837.08 702054.18
 -49217.261 540345.40 587881.38
 -18017.815 637534.76 482933.53
 1126.4392 681020.09 419774.18
 -235823.05 -620460.56 446560.40
 -277275.89 -566683.69 491922.43
 -326047.69 -461281.94 566490.84
 -362719.58 -298914.23 647367.59
 -373837.07 -85824.019 702054.19
 -351808.16 149036.09 702865.04
 -298914.23 362719.59 647367.58
 -228124.94 522797.51 560929.39
 -158034.26 621659.96 478083.75
 -108917.21 668169.03 426247.80
 -348900.54 -542884.88 472804.84
 -407823.08 -481735.44 491539.73
 -474155.59 -375080.15 523919.24
 -522797.50 -228124.94 560929.39
 -540345.39 -49217.259 587881.38
 -519717.23 143918.11 590915.88
 -461281.94 326047.69 566490.84
 -375080.15 474155.59 523919.23
 -280847.13 575826.62 479112.30
 -208872.47 628719.11 448424.55
 -443827.03 -439982.68 499432.48
 -508490.26 -378601.99 487953.05
 -575826.61 -280847.13 479112.31
 -621659.95 -158034.26 478083.76
 -637534.76 -18017.815 482933.53
 -619700.47 130812.00 488732.59
 -566683.69 277275.90 491922.43
 -481735.44 407823.08 491539.72
 -378601.99 508490.27 487953.05
 -291499.75 567028.11 483225.64
 -503539.10 -343495.94 518130.21
 -567028.11 -291499.74 483225.65
 -628719.10 -208872.47 448424.56
 -668169.03 -108917.21 426247.81
 -681020.09 1126.4401 419774.19
 -665922.69 117422.00 427503.27
 -620460.56 235823.05 446560.39
 -542884.88 348900.55 472804.84
 -439982.69 443827.04 499432.48
 -343495.94 503539.11 518130.20
 291358.28 -556663.49 495213.20
 398116.27 -499628.59 481533.70
 515943.50 -405078.92 457944.73
 608744.55 -288860.77 431265.03
 667417.72 -165471.93 408867.50
 693526.23 -44841.755 396245.61
 690660.35 66904.942 398135.66
 661618.87 165306.94 418251.22
 610985.07 243933.32 455185.43
 556663.49 291358.28 495213.20
 243933.32 -610985.07 455185.44
 338320.22 -558230.30 462513.09
 455107.54 -461817.57 468616.75
 556691.63 -330619.73 469877.67
 625718.70 -179111.58 465182.92
 656941.57 -24165.651 455898.89
 652115.42 119500.68 447733.25
 616347.76 242445.25 448704.51
 558230.30 338320.22 462513.09
 499628.60 398116.27 481533.70
 165306.94 -661618.87 418251.23
 242445.25 -616347.75 448704.52
 349148.36 -522632.83 494924.58
 453806.45 -376787.61 540454.26
 532170.36 -188788.90 566704.03
 569283.93 14301.455 561881.91
 563239.51 200304.65 531638.31
 522632.84 349148.36 494924.58
 461817.58 455107.54 468616.74
 405078.92 515943.50 457944.73
 66904.942 -690660.35 398135.67
 119500.68 -652115.42 447733.26
 200304.65 -563239.51 531638.32
 289712.51 -407192.27 624708.83
 365077.85 -185198.28 687327.98
 406280.86 65606.405 686025.99
 407192.28 289712.51 624708.82
 376787.62 453806.45 540454.26
 330619.74 556691.63 469877.66
 288860.77 608744.55 431265.03
 -44841.754 -693526.23 396245.61
 -24165.653 -656941.56 455898.90
 14301.459 -569283.93 561881.91
 65606.402 -406280.85 686026.00
 119421.53 -162213.93 774225.51
 162213.94 119421.53 774225.51
 185198.29 365077.86 687327.98
 188788.91 532170.36 566704.03
 179111.58 625718.70 465182.91
 165471.94 667417.72 408867.49
 -165471.94 -667417.71 408867.50
 -179111.58 -625718.70 465182.92
 -188788.91 -532170.35 566704.04
 -185198.28 -365077.85 687327.99
 -162213.93 -119421.52 774225.51
 -119421.52 162213.94 774225.51
 -65606.395 406280.86 686025.99
 -14301.451 569283.93 561881.91
 24165.656 656941.57 455898.89
 44841.758 693526.23 396245.61
 -288860.77 -608744.55 431265.04
 -330619.73 -556691.63 469877.67
 -376787.61 -453806.44 540454.26
 -407192.27 -289712.50 624708.83
 -406280.85 -65606.395 686026.00
 -365077.85 185198.29 687327.98
 -289712.50 407192.28 624708.82
 -200304.65 563239.51 531638.32
 -119500.67 652115.42 447733.25
 -66904.939 690660.35 398135.66
 -405078.92 -515943.49 457944.74
 -461817.57 -455107.53 468616.75
 -522632.83 -349148.36 494924.59
 -563239.51 -200304.65 531638.32
 -569283.93 -14301.452 561881.91
 -532170.35 188788.91 566704.04
 -453806.44 376787.62 540454.26
 -349148.36 522632.84 494924.58
 -242445.25 616347.76 448704.51
 -165306.93 661618.87 418251.22
 -499628.59 -398116.27 481533.70
 -558230.30 -338320.22 462513.09
 -616347.76 -242445.25 448704.52
 -652115.42 -119500.67 447733.26
 -656941.56 24165.656 455898.90
 -625718.70 179111.58 465182.92
 -556691.63 330619.74 469877.67
 -455107.53 461817.58 468616.75
 -338320.22 558230.30 462513.09
 -243933.32 610985.07 455185.44
 -556663.49 -291358.27 495213.21
 -610985.07 -243933.32 455185.44
 -661618.87 -165306.93 418251.23
 -690660.35 -66904.939 398135.67
 -693526.23 44841.758 396245.61
 -667417.71 165471.94 408867.50
 -608744.55 288860.77 431265.03
 -515943.49 405078.92 457944.73
 -398116.27 499628.60 481533.70
 -291358.27 556663.49 495213.20
 242713.31 -603853.54 465243.11
 356944.57 -552357.92 455512.12
 487065.51 -461954.83 435160.80
 594159.97 -345711.71 409215.52
 666468.87 -218580.55 384761.98
 704238.47 -92773.963 368023.32
 711348.66 22941.182 365317.38
 691856.24 122450.76 382545.11
 650848.25 199099.14 420423.70
 603853.54 242713.31 465243.11
 199099.14 -650848.24 420423.71
 299523.19 -605891.55 427996.84
 428170.03 -517025.96 435148.91
 545733.66 -388537.85 437279.21
 631535.73 -233493.93 432022.23
 677019.92 -71299.041 420191.00
 683000.49 78717.406 409040.21
 656067.33 204404.68 409627.13
 605891.55 299523.18 427996.83
 552357.93 356944.57 455512.12
 122450.76 -691856.23 382545.11
 204404.69 -656067.33 409627.13
 322888.82 -573799.54 454419.30
 446741.77 -434300.31 501801.79
 547746.52 -241947.19 530504.76
 603507.31 -26511.730 524476.94
 608440.47 170063.93 490793.69
 573799.55 322888.81 454419.29
 517025.96 428170.03 435148.91
 461954.83 487065.51 435160.80
 22941.184 -711348.66 365317.39
 78717.406 -683000.49 409040.22
 170063.93 -608440.47 490793.70
 280364.80 -461569.89 590210.82
 383981.43 -231767.87 662451.44
 449078.51 40683.720 660812.63
 461569.90 280364.80 590210.82
 434300.32 446741.76 501801.79
 388537.86 545733.66 437279.21
 345711.72 594159.97 409215.51
 -92773.964 -704238.47 368023.33
 -71299.037 -677019.92 420191.00
 -26511.731 -603507.30 524476.94
 40683.725 -449078.50 660812.63
 120953.08 -191481.75 767271.20
 191481.76 120953.08 767271.20
 231767.88 383981.43 662451.44
 241947.19 547746.52 530504.76
 233493.94 631535.73 432022.23
 218580.55 666468.87 384761.98
 -218580.55 -666468.87 384761.99
 -233493.93 -631535.73 432022.23
 -241947.18 -547746.52 530504.77
 -231767.87 -383981.42 662451.45
 -191481.74 -120953.07 767271.20
 -120953.07 191481.75 767271.20
 -40683.713 449078.51 660812.63
 26511.739 603507.31 524476.94
 71299.045 677019.92 420191.00
 92773.968 704238.47 368023.32
 -345711.71 -594159.97 409215.52
 -388537.85 -545733.66 437279.22
 -434300.31 -446741.76 501801.79
 -461569.89 -280364.80 590210.83
 -449078.50 -40683.715 660812.63
 -383981.42 231767.88 662451.45
 -280364.79 461569.90 590210.82
 -170063.93 608440.47 490793.70
 -78717.400 683000.49 409040.22
 -22941.178 711348.66 365317.38
 -461954.83 -487065.51 435160.80
 -517025.96 -428170.03 435148.92
 -573799.54 -322888.81 454419.30
 -608440.47 -170063.93 490793.70
 -603507.30 26511.737 524476.94
 -547746.52 241947.19 530504.77
 -446741.76 434300.32 501801.79
 -322888.81 573799.55 454419.29
 -204404.68 656067.33 409627.13
 -122450.76 691856.24 382545.11
 -552357.93 -356944.57 455512.13
 -605891.55 -299523.18 427996.84
 -656067.33 -204404.68 409627.14
 -683000.49 -78717.402 409040.22
 -677019.92 71299.044 420191.00
 -631535.73 233493.94 432022.23
 -545733.65 388537.86 437279.22
 -428170.03 517025.97 435148.91
 -299523.18 605891.55 427996.84
 -199099.14 650848.25 420423.71
 -603853.54 -242713.31 465243.11
 -650848.24 -199099.14 420423.71
 -691856.23 -122450.76 382545.11
 -711348.66 -22941.179 365317.39
 -704238.47 92773.968 368023.33
 -666468.87 218580.55 384761.99
 -594159.97 345711.72 409215.52
 -487065.51 461954.83 435160.80
 -356944.57 552357.93 455512.12
 -242713.31 603853.54 465243.11
 207723.35 -637999.80 435668.75
 325199.06 -591852.65 428900.93
 461538.99 -507182.73 412004.18
 578220.59 -393651.20 388200.57
 661430.41 -265149.95 363600.50
 709327.24 -135011.31 344422.44
 724987.47 -14339.111 337916.49
 713152.81 88620.129 351510.38