# OOMMF OVF 2.0
#
# Segment count: 1
#
# Begin: Segment
# Begin: Header
#
# Title: Oxs_MinDriver::Magnetization
# Desc: Oxs vector field output
# Desc:  MIF source file: /home/ryan/Git/joommf/tools/omfvis/cube_example.mif
# Desc:  Iteration: 5125, State id: 10906
# Desc:  Stage: 26, Stage iteration: 35
# Desc:  Stage simulation time: 0 s
# Desc:  Total simulation time: -2 s
# meshunit: m
# meshtype: rectangular
# xbase: 2.5000000000000001e-09
# ybase: 2.5000000000000001e-09
# zbase: 2.5000000000000001e-09
# xnodes: 10
# ynodes: 10
# znodes: 10
# xstepsize: 5.0000000000000001e-09
# ystepsize: 5.0000000000000001e-09
# zstepsize: 5.0000000000000001e-09
# xmin: 0
# ymin: 0
# zmin: 0
# xmax: 4.9999999999999998e-08
# ymax: 4.9999999999999998e-08
# zmax: 4.9999999999999998e-08
# valuedim: 3
# valuelabels: Magnetization_x Magnetization_y Magnetization_z
# valueunits: A/m A/m A/m
#
# End: Header
#
# Begin: Data Text
 279965.49 279965.61 695153.64
 248097.58 286288.18 704618.10
 193602.46 292924.68 718827.67
 123065.23 297917.33 732188.65
 42226.882 300563.81 740188.01
 -42227.083 300563.78 740188.01
 -123065.41 297917.23 732188.66
 -193602.61 292924.53 718827.69
 -248097.69 286288.01 704618.13
 -279965.57 279965.43 695153.68
 286288.06 248097.74 704618.09
 256633.34 256633.49 712936.59
 202025.30 264616.08 727436.67
 129136.40 270500.83 741723.06
 44431.416 273623.03 750437.40
 -44431.582 273622.98 750437.40
 -129136.55 270500.71 741723.07
 -202025.42 264615.90 727436.70
 -256633.43 256633.27 712936.64
 -286288.13 248097.52 704618.14
 292924.59 193602.68 718827.65
 264615.97 202025.49 727436.66
 209937.53 209937.67 742867.69
 134965.64 215755.41 758441.74
 46576.529 218844.01 768074.17
 -46576.619 218843.96 768074.18
 -134965.73 215755.26 758441.77
 -209937.59 209937.45 742867.74
 -264616.02 202025.23 727436.71
 -292924.62 193602.40 718827.71
 297917.29 123065.49 732188.62
 270500.78 129136.63 741723.03
 215755.34 134965.81 758441.73
 139283.76 139283.84 775370.91
 48175.201 141582.79 785896.60
 -48175.176 141582.73 785896.61
 -139283.74 139283.67 775370.94
 -215755.32 134965.56 758441.78
 -270500.76 129136.32 741723.10
 -297917.27 123065.16 732188.68
 300563.83 42227.159 740187.98
 273623.05 44431.666 750437.37
 218844.04 46576.717 768074.15
 141582.83 48175.285 785896.59
 49028.466 49028.423 796989.60
 -49028.305 49028.357 796989.61
 -141582.68 48175.098 785896.62
 -218843.92 46576.436 768074.20
 -273622.95 44431.333 750437.43
 -300563.75 42226.806 740188.04
 300563.87 -42226.809 740187.99
 273623.10 -44431.332 750437.38
 218844.10 -46576.434 768074.15
 141582.89 -48175.092 785896.59
 49028.534 -49028.349 796989.60
 -49028.238 -49028.415 796989.62
 -141582.62 -48175.277 785896.62
 -218843.87 -46576.709 768074.20
 -273622.91 -44431.661 750437.43
 -300563.72 -42227.154 740188.03
 297917.38 -123065.17 732188.64
 270500.90 -129136.32 741723.05
 215755.49 -134965.56 758441.74
 139283.94 -139283.66 775370.91
 48175.391 -141582.72 785896.60
 -48174.984 -141582.78 785896.61
 -139283.56 -139283.83 775370.95
 -215755.17 -134965.81 758441.78
 -270500.64 -129136.62 741723.09
 -297917.17 -123065.47 732188.67
 292924.72 -193602.41 718827.67
 264616.14 -202025.24 727436.67
 209937.74 -209937.45 742867.69
 134965.90 -215755.26 758441.74
 46576.814 -218843.95 768074.17
 -46576.333 -218844.00 768074.18
 -134965.46 -215755.40 758441.78
 -209937.37 -209937.66 742867.74
 -264615.84 -202025.48 727436.71
 -292924.49 -193602.66 718827.69
 286288.22 -248097.54 704618.10
 256633.54 -256633.29 712936.59
 202025.56 -264615.91 727436.66
 129136.70 -270500.71 741723.05
 44431.754 -273622.98 750437.39
 -44431.242 -273623.02 750437.41
 -129136.23 -270500.82 741723.09
 -202025.16 -264616.07 727436.71
 -256633.22 -256633.47 712936.64
 -286287.97 -248097.72 704618.14
 279965.65 -279965.45 695153.64
 248097.79 -286288.03 704618.09
 193602.74 -292924.54 718827.65
 123065.56 -297917.23 732188.63
 42227.238 -300563.78 740188.00
 -42226.725 -300563.81 740188.02
 -123065.08 -297917.32 732188.68
 -193602.33 -292924.66 718827.71
 -248097.47 -286288.16 704618.15
 -279965.40 -279965.59 695153.68
 226859.15 226859.28 732850.46
 203315.69 223638.55 740708.13
 159269.96 222565.01 751729.94
 101138.38 222239.98 761827.03
 34644.727 222119.33 767764.77
 -34644.935 222119.30 767764.77
 -101138.57 222239.89 761827.03
 -159270.12 222564.86 751729.95
 -203315.80 223638.38 740708.15
 -226859.22 226859.09 732850.49
 223638.44 203315.86 740708.11
 203173.94 203174.09 746619.47
 160646.13 203654.80 756781.04
 102511.81 204179.13 766682.60
 35187.484 204465.08 772629.19
 -35187.655 204465.05 772629.20
 -102511.96 204179.02 766682.61
 -160646.25 203654.63 756781.06
 -203174.04 203173.88 746619.50
 -223638.50 203315.63 740708.16
 222564.92 159270.18 751729.92
 203654.69 160646.32 756781.03
 162159.40 162159.53 766425.87
 103959.82 163236.79 776238.43
 35763.848 163768.72 782240.85
 -35763.948 163768.67 782240.86
 -103959.91 163236.65 776238.45
 -162159.47 162159.33 766425.90
 -203654.74 160646.06 756781.07
 -222564.95 159269.90 751729.97
 222239.94 101138.63 761827.00
 204179.08 102512.03 766682.58
 163236.72 103959.98 776238.43
 104956.74 104956.81 786109.50
 36160.392 105440.40 792196.16
 -36160.391 105440.34 792196.16
 -104956.73 104956.66 786109.52
 -163236.71 103959.74 776238.46
 -204179.07 102511.74 766682.63
 -222239.92 101138.31 761827.05
 222119.35 34644.997 767764.75
 204465.11 35187.726 772629.18
 163768.75 35764.023 782240.84
 105440.42 36160.478 792196.15
 36352.253 36352.227 798346.43
 -36352.137 36352.168 798346.44
 -105440.31 36160.311 792196.17
 -163768.65 35763.773 782240.87
 -204465.02 35187.416 772629.21
 -222119.28 34644.663 767764.79
 222119.38 -34644.667 767764.76
 204465.14 -35187.420 772629.18
 163768.79 -35763.771 782240.84
 105440.48 -36160.309 792196.15
 36352.311 -36352.163 798346.43
 -36352.077 -36352.220 798346.44
 -105440.26 -36160.469 792196.17
 -163768.60 -35764.018 782240.87
 -204464.98 -35187.718 772629.21
 -222119.25 -34644.993 767764.79
 222240.03 -101138.33 761827.02
 204179.19 -102511.75 766682.59
 163236.85 -103959.75 776238.43
 104956.89 -104956.66 786109.50
 36160.559 -105440.34 792196.16
 -36160.224 -105440.39 792196.16
 -104956.58 -104956.80 786109.53
 -163236.58 -103959.97 776238.46
 -204178.96 -102512.02 766682.62
 -222239.84 -101138.62 761827.04
 222565.04 -159269.92 751729.93
 203654.85 -160646.08 756781.04
 162159.59 -162159.34 766425.87
 103960.05 -163236.65 776238.43
 35764.101 -163768.67 782240.85
 -35763.693 -163768.72 782240.86
 -103959.67 -163236.78 776238.46
 -162159.26 -162159.52 766425.90
 -203654.58 -160646.29 756781.07
 -222564.82 -159270.16 751729.95
 223638.58 -203315.66 740708.13
 203174.13 -203173.90 746619.47
 160646.37 -203654.65 756781.03
 102512.09 -204179.03 766682.59
 35187.794 -204465.04 772629.19
 -35187.343 -204465.08 772629.20
 -102511.67 -204179.12 766682.62
 -160646.00 -203654.78 756781.07
 -203173.84 -203174.07 746619.51
 -223638.34 -203315.83 740708.15
 226859.30 -226859.12 732850.46
 203315.89 -223638.41 740708.12
 159270.22 -222564.88 751729.92
 101138.69 -222239.90 761827.01
 34645.063 -222119.30 767764.77
 -34644.596 -222119.33 767764.78
 -101138.25 -222239.97 761827.05
 -159269.85 -222564.99 751729.97
 -203315.59 -223638.53 740708.16
 -226859.06 -226859.25 732850.50
 159680.36 159680.49 767466.17
 142598.76 151898.66 772393.93
 111330.75 145765.93 778689.77
 70432.835 141717.34 784190.93
 24065.358 139676.74 787344.44
 -24065.572 139676.72 787344.44
 -70433.030 141717.25 784190.93
 -111330.91 145765.80 778689.77
 -142598.88 151898.50 772393.95
 -159680.44 159680.30 767466.19
 151898.55 142598.93 772393.93
 137733.26 137733.41 775924.65
 108684.03 133191.32 781311.62
 69126.831 130015.87 786331.58
 23668.833 128386.28 789276.09
 -23669.011 128386.24 789276.09
 -69126.991 130015.77 786331.58
 -108684.16 133191.16 781311.63
 -137733.36 137733.21 775924.66
 -151898.62 142598.71 772393.95
 145765.85 111330.96 778689.76
 133191.21 108684.21 781311.62
 105916.27 105916.40 785852.06
 67698.353 103820.91 790340.53
 23231.373 102702.29 793040.06
 -23231.485 102702.25 793040.07
 -67698.457 103820.79 790340.54
 -105916.35 105916.21 785852.07
 -133191.27 108683.98 781311.64
 -145765.88 111330.69 778689.79
 141717.30 70433.079 784190.91
 130015.82 69127.045 786331.57
 103820.84 67698.509 790340.52
 66550.479 66550.559 794444.50
 22869.468 65914.502 796951.86
 -22869.497 65914.452 796951.86
 -66550.500 66550.424 794444.51
 -103820.86 67698.298 790340.54
 -130015.82 69126.778 786331.59
 -141717.29 70432.783 784190.94
 139676.76 24065.620 787344.43
 128386.29 23669.057 789276.08
 102702.30 23231.542 793040.06
 65914.508 22869.554 796951.86
 22664.725 22664.718 799357.63
 -22664.656 22664.670 799357.63
 -65914.444 22869.413 796951.87
 -102702.24 23231.321 793040.07
 -128386.23 23668.784 789276.10
 -139676.70 24065.311 787344.45
 139676.78 -24065.317 787344.43
 128386.32 -23668.784 789276.09
 102702.34 -23231.324 793040.06
 65914.554 -22869.410 796951.86
 22664.773 -22664.665 799357.63
 -22664.609 -22664.711 799357.63
 -65914.393 -22869.548 796951.87
 -102702.20 -23231.532 793040.07
 -128386.19 -23669.054 789276.10
 -139676.67 -24065.613 787344.44
 141717.37 -70432.797 784190.93
 130015.91 -69126.792 786331.58
 103820.95 -67698.304 790340.53
 66550.609 -66550.427 794444.50
 22869.608 -65914.450 796951.86
 -22869.354 -65914.494 796951.86
 -66550.369 -66550.547 794444.51
 -103820.74 -67698.498 790340.54
 -130015.73 -69127.026 786331.59
 -141717.21 -70433.063 784190.93
 145765.96 -111330.72 778689.77
 133191.35 -108683.99 781311.62
 105916.44 -105916.23 785852.06
 67698.555 -103820.79 790340.53
 23231.591 -102702.25 793040.06
 -23231.267 -102702.29 793040.07
 -67698.247 -103820.90 790340.54
 -105916.17 -105916.38 785852.08
 -133191.12 -108684.19 781311.64
 -145765.76 -111330.93 778689.78
 151898.68 -142598.73 772393.93
 137733.44 -137733.23 775924.65
 108684.25 -133191.18 781311.62
 69127.084 -130015.78 786331.57
 23669.107 -128386.24 789276.09
 -23668.732 -128386.27 789276.10
 -69126.733 -130015.86 786331.59
 -108683.94 -133191.30 781311.64
 -137733.18 -137733.38 775924.67
 -151898.47 -142598.89 772393.95
 159680.50 -159680.34 767466.17
 142598.95 -151898.53 772393.93
 111330.99 -145765.82 778689.76
 70433.116 -141717.26 784190.92
 24065.665 -139676.72 787344.43
 -24065.264 -139676.74 787344.44
 -70432.740 -141717.32 784190.94
 -111330.66 -145765.90 778689.79
 -142598.67 -151898.63 772393.96
 -159680.28 -159680.45 767466.20
 92478.230 92478.359 789237.31
 81997.922 85684.157 791160.27
 63629.990 79697.239 793473.11
 40080.261 75577.761 795412.83
 13662.382 73491.208 796500.08
 -13662.605 73491.180 796500.08
 -40080.465 75577.685 795412.83
 -63630.162 79697.117 793473.11
 -81998.048 85684.003 791160.27
 -92478.320 92478.187 789237.32
 85684.044 81998.087 791160.26
 77246.246 77246.392 792506.16
 60675.805 72462.496 794397.65
 38461.747 69027.197 796087.90
 13144.064 67264.954 797058.76
 -13144.251 67264.928 797058.75
 -38461.922 69027.102 796087.90
 -60675.946 72462.352 794397.66
 -77246.356 77246.207 792506.17
 -85684.119 81997.880 791160.27
 79697.153 63630.197 793473.10
 72462.389 60675.984 794397.65
 57440.938 57441.074 795864.98
 36629.164 54995.451 797266.46
 12552.049 53710.457 798096.26
 -12552.180 53710.415 798096.26
 -36629.279 54995.346 797266.46
 -57441.039 57440.903 795864.98
 -72462.458 60675.766 794397.66
 -79697.203 63629.952 793473.12
 75577.717 40080.500 795412.83
 69027.136 38461.954 796087.89
 54995.378 36629.318 797266.46
 35197.036 35197.124 798449.96
 12082.785 34429.492 799167.45
 -12082.840 34429.454 799167.45
 -35197.088 35197.003 798449.96
 -54995.413 36629.130 797266.46
 -69027.162 38461.713 796087.90
 -75577.727 40080.226 795412.84
 73491.209 13662.635 796500.08
 67264.954 13144.286 797058.75
 53710.447 12552.212 798096.25
 34429.484 12082.878 799167.45
 11828.750 11828.762 799825.08
 -11828.724 11828.720 799825.08
 -34429.454 12082.754 799167.45
 -53710.420 12552.019 798096.26
 -67264.920 13144.035 797058.76
 -73491.176 13662.352 796500.09
 73491.230 -13662.353 796500.08
 67264.982 -13144.036 797058.75
 53710.481 -12552.014 798096.25
 34429.522 -12082.751 799167.45
 11828.793 -11828.712 799825.08
 -11828.681 -11828.755 799825.08
 -34429.417 -12082.868 799167.45
 -53710.379 -12552.206 798096.26
 -67264.895 -13144.275 797058.76
 -73491.149 -13662.628 796500.08
 75577.779 -40080.236 795412.83
 69027.214 -38461.719 796087.90
 54995.475 -36629.135 797266.46
 35197.150 -35197.001 798449.96
 12082.907 -34429.448 799167.45
 -12082.719 -34429.483 799167.45
 -35196.967 -35197.112 798449.96
 -54995.314 -36629.300 797266.46
 -69027.071 -38461.940 796087.90
 -75577.658 -40080.480 795412.83
 79697.250 -63629.968 793473.11
 72462.510 -60675.781 794397.65
 57441.092 -57440.910 795864.98
 36629.340 -54995.347 797266.46
 12552.240 -53710.413 798096.26
 -12551.983 -53710.445 798096.26
 -36629.099 -54995.435 797266.46
 -57440.872 -57441.056 795864.98
 -72462.326 -60675.957 794397.66
 -79697.092 -63630.172 793473.11
 85684.163 -81997.902 791160.27
 77246.402 -77246.224 792506.16
 60675.998 -72462.364 794397.65
 38461.975 -69027.108 796087.89
 13144.311 -67264.922 797058.75
 -13144.004 -67264.946 797058.76
 -38461.683 -69027.179 796087.90
 -60675.740 -72462.470 794397.66
 -77246.182 -77246.364 792506.17
 -85683.981 -81998.051 791160.27
 92478.362 -92478.211 789237.31
 81998.093 -85684.023 791160.26
 63630.209 -79697.131 793473.10
 40080.517 -75577.690 795412.83
 13662.660 -73491.179 796500.08
 -13662.321 -73491.197 796500.08
 -40080.199 -75577.743 795412.84
 -63629.926 -79697.213 793473.12
 -81997.857 -85684.123 791160.28
 -92478.165 -92478.320 789237.32
 30009.989 30010.121 798873.45
 26485.679 27422.269 799091.06
 20468.703 25059.067 799345.40
 12857.985 23412.263 799553.96
 4376.9566 22577.140 799669.38
 -4377.1955 22577.118 799669.38
 -12858.206 23412.193 799553.96
 -20468.890 25058.956 799345.40
 -26485.825 27422.128 799091.06
 -30010.095 30009.962 798873.45
 27422.151 26485.848 799091.06
 24626.823 24626.971 799241.54
 19282.916 22708.487 799445.12
 12198.294 21318.638 799622.86
 4164.4093 20605.654 799723.74
 -4164.6150 20605.622 799723.74
 -12198.482 21318.556 799622.86
 -19283.080 22708.353 799445.12
 -24626.947 24626.800 799241.54
 -27422.246 26485.655 799091.07
 25058.976 20468.913 799345.40
 22708.372 19283.100 799445.11
 17961.258 17961.398 799596.64
 11439.312 16959.462 799738.41
 3917.6139 16434.647 799821.58
 -3917.7633 16434.615 799821.58
 -11439.453 16959.361 799738.41
 -17961.374 17961.241 799596.64
 -22708.465 19282.898 799445.12
 -25059.043 20468.681 799345.41
 23412.208 12858.226 799553.96
 21318.569 12198.506 799622.86
 16959.375 11439.473 799738.41
 10847.203 10847.301 799852.91
 3722.7182 10531.829 799922.01
 -3722.8002 10531.790 799922.01
 -10847.277 10847.191 799852.91
 -16959.439 11439.298 799738.41
 -21318.615 12198.279 799622.86
 -23412.241 12857.968 799553.96
 22577.127 4377.2157 799669.38
 20605.635 4164.6332 799723.74
 16434.624 3917.7867 799821.58
 10531.800 3722.8224 799922.01
 3618.0342 3618.0639 799983.64
 -3618.0398 3618.0234 799983.64
 -10531.805 3722.7089 799922.01
 -16434.623 3917.6039 799821.58
 -20605.631 4164.3976 799723.74
 -22577.119 4376.9461 799669.38
 22577.147 -4376.9389 799669.38
 20605.657 -4164.3881 799723.74
 16434.655 -3917.5944 799821.58
 10531.836 -3722.6946 799922.01
 3618.0713 -3618.0109 799983.64
 -3618.0002 -3618.0470 799983.64
 -10531.766 -3722.8086 799922.01
 -16434.593 -3917.7704 799821.58
 -20605.600 -4164.6197 799723.74
 -22577.097 -4377.2012 799669.38
 23412.263 -12857.966 799553.96
 21318.641 -12198.276 799622.86
 16959.464 -11439.290 799738.41
 10847.307 -10847.182 799852.91
 3722.8306 -10531.777 799922.01
 -3722.6850 -10531.813 799922.01
 -10847.170 -10847.283 799852.91
 -16959.339 -11439.455 799738.41
 -21318.536 -12198.484 799622.86
 -23412.173 -12858.206 799553.96
 25059.062 -20468.685 799345.40
 22708.484 -19282.897 799445.12
 17961.398 -17961.238 799596.64
 11439.476 -16959.354 799738.41
 3917.7936 -16434.601 799821.58
 -3917.5841 -16434.632 799821.58
 -11439.276 -16959.442 799738.41
 -17961.222 -17961.373 799596.64
 -22708.333 -19283.077 799445.12
 -25058.937 -20468.884 799345.40
 27422.261 -26485.660 799091.06
 24626.964 -24626.804 799241.54
 19283.098 -22708.352 799445.12
 12198.507 -21318.549 799622.86
 4164.6388 -20605.613 799723.74
 -4164.3769 -20605.635 799723.74
 -12198.261 -21318.617 799622.86
 -19282.878 -22708.462 799445.12
 -24626.781 -24626.939 799241.54
 -27422.109 -26485.815 799091.06
 30010.109 -30009.969 798873.45
 26485.839 -27422.132 799091.06
 20468.907 -25058.957 799345.40
 12858.226 -23412.188 799553.96
 4377.2212 -22577.106 799669.38
 -4376.9278 -22577.125 799669.38
 -12857.949 -23412.241 799553.96
 -20468.663 -25059.039 799345.41
 -26485.636 -27422.237 799091.07
 -30009.943 -30010.083 798873.46
 -30010.088 -30009.946 798873.46
 -26485.819 -27422.111 799091.06
 -20468.889 -25058.940 799345.40
 -12858.211 -23412.175 799553.96
 -4377.2055 -22577.098 799669.38
 4376.9408 -22577.121 799669.38
 12857.964 -23412.242 799553.96
 20468.677 -25059.044 799345.41
 26485.651 -27422.247 799091.07
 30009.959 -30010.096 798873.45
 -27422.241 -26485.638 799091.07
 -24626.944 -24626.784 799241.54
 -19283.080 -22708.335 799445.12
 -12198.488 -21318.536 799622.86
 -4164.6255 -20605.604 799723.74
 4164.3944 -20605.632 799723.74
 12198.274 -21318.617 799622.86
 19282.894 -22708.466 799445.12
 24626.796 -24626.948 799241.54
 27422.125 -26485.826 799091.06
 -25059.043 -20468.665 799345.41
 -22708.466 -19282.879 799445.12
 -17961.378 -17961.223 799596.64
 -11439.460 -16959.342 799738.41
 -3917.7744 -16434.593 799821.58
 3917.5984 -16434.626 799821.58
 11439.294 -16959.441 799738.41
 17961.236 -17961.376 799596.64
 22708.350 -19283.082 799445.12
 25058.953 -20468.891 799345.40
 -23412.246 -12857.951 799553.96
 -21318.621 -12198.262 799622.86
 -16959.447 -11439.279 799738.41
 -10847.287 -10847.171 799852.91
 -3722.8129 -10531.769 799922.01
 3722.7035 -10531.808 799922.01
 10847.187 -10847.279 799852.91
 16959.357 -11439.455 799738.41
 21318.551 -12198.486 799622.86
 23412.189 -12858.209 799553.96
 -22577.128 -4376.9282 799669.38
 -20605.642 -4164.3791 799723.74
 -16434.634 -3917.5839 799821.58
 -10531.818 -3722.6869 799922.01
 -3618.0531 -3618.0033 799983.64
 3618.0205 -3618.0402 799983.64
 10531.785 -3722.8043 799922.01
 16434.610 -3917.7662 799821.58
 20605.620 -4164.6172 799723.74
 22577.113 -4377.1992 799669.38
 -22577.111 4377.2207 799669.38
 -20605.615 4164.6396 799723.74
 -16434.607 3917.7918 799821.58
 -10531.781 3722.8296 799922.01
 -3618.0138 3618.0704 799983.64
 3618.0575 3618.0302 799983.64
 10531.825 3722.7162 799922.01
 16434.643 3917.6103 799821.58
 20605.648 4164.4050 799723.74
 22577.137 4376.9530 799669.38
 -23412.192 12858.227 799553.96
 -21318.553 12198.507 799622.86
 -16959.357 11439.476 799738.41
 -10847.186 10847.305 799852.91
 -3722.7001 10531.835 799922.01
 3722.8193 10531.798 799922.01
 10847.296 10847.200 799852.91
 16959.457 11439.309 799738.41
 21318.634 12198.290 799622.86
 23412.259 12857.980 799553.96
 -25058.960 20468.909 799345.40
 -22708.356 19283.098 799445.12
 -17961.241 17961.398 799596.64
 -11439.295 16959.464 799738.41
 -3917.5976 16434.652 799821.58
 3917.7820 16434.623 799821.58
 11439.470 16959.372 799738.41
 17961.393 17961.253 799596.64
 22708.483 19282.913 799445.12
 25059.062 20468.697 799345.40
 -27422.137 26485.840 799091.06
 -24626.806 24626.966 799241.54
 -19282.902 22708.484 799445.12
 -12198.279 21318.640 799622.86
 -4164.3922 20605.658 799723.74
 4164.6299 20605.630 799723.74
 12198.501 21318.567 799622.86
 19283.098 22708.368 799445.12
 24626.966 24626.817 799241.54
 27422.266 26485.674 799091.06
 -30009.973 30010.111 798873.45
 -26485.664 27422.262 799091.06
 -20468.688 25059.063 799345.40
 -12857.970 23412.263 799553.96
 -4376.9422 22577.145 799669.38
 4377.2120 22577.126 799669.38
 12858.223 23412.204 799553.96
 20468.908 25058.971 799345.40
 26485.845 27422.147 799091.06
 30010.116 30009.983 798873.45
 -92478.333 -92478.174 789237.32
 -81998.065 -85683.989 791160.27
 -63630.185 -79697.100 793473.11
 -40080.494 -75577.665 795412.83
 -13662.642 -73491.158 796500.08
 13662.340 -73491.182 796500.09
 40080.214 -75577.733 795412.84
 63629.941 -79697.209 793473.12
 81997.871 -85684.124 791160.27
 92478.180 -92478.324 789237.32
 -85684.136 -81997.865 791160.27
 -77246.376 -77246.190 792506.17
 -60675.971 -72462.333 794397.66
 -38461.954 -69027.081 796087.90
 -13144.288 -67264.901 797058.76
 13144.021 -67264.929 797058.76
 38461.702 -69027.169 796087.90
 60675.755 -72462.464 794397.66
 77246.198 -77246.363 792506.17
 85683.995 -81998.054 791160.27
 -79697.224 -63629.933 793473.11
 -72462.483 -60675.747 794397.66
 -57441.069 -57440.881 795864.98
 -36629.314 -54995.320 797266.46
 -12552.220 -53710.389 798096.26
 12552.007 -53710.428 798096.26
 36629.117 -54995.421 797266.46
 57440.892 -57441.048 795864.98
 72462.342 -60675.953 794397.66
 79697.109 -63630.170 793473.11
 -75577.754 -40080.205 795412.84
 -69027.192 -38461.690 796087.90
 -54995.447 -36629.104 797266.46
 -35197.126 -35196.976 798449.96
 -12082.881 -34429.425 799167.45
 12082.742 -34429.462 799167.45
 35196.991 -35197.099 798449.96
 54995.333 -36629.288 797266.46
 69027.093 -38461.932 796087.90
 75577.675 -40080.474 795412.83
 -73491.208 -13662.327 796500.08
 -67264.956 -13144.007 797058.76
 -53710.458 -12551.991 798096.26
 -34429.495 -12082.724 799167.45
 -11828.767 -11828.690 799825.08
 11828.706 -11828.735 799825.08
 34429.442 -12082.849 799167.45
 53710.404 -12552.192 798096.26
 67264.915 -13144.262 797058.76
 73491.171 -13662.616 796500.08
 -73491.188 13662.658 796500.08
 -67264.934 13144.305 797058.75
 -53710.423 12552.237 798096.25
 -34429.459 12082.899 799167.45
 -11828.725 11828.785 799825.08
 11828.752 11828.742 799825.08
 34429.479 12082.773 799167.45
 53710.445 12552.039 798096.26
 67264.945 13144.051 797058.76
 73491.198 13662.369 796500.08
 -75577.699 40080.515 795412.83
 -69027.117 38461.973 796087.89
 -54995.356 36629.335 797266.46
 -35197.013 35197.145 798449.96
 -12082.759 34429.513 799167.45
 12082.865 34429.475 799167.45
 35197.115 35197.026 798449.96
 54995.439 36629.150 797266.46
 69027.186 38461.735 796087.90
 75577.751 40080.247 795412.83
 -79697.138 63630.208 793473.10
 -72462.370 60675.996 794397.65
 -57440.921 57441.089 795864.98
 -36629.141 54995.468 797266.46
 -12552.026 53710.476 798096.25
 12552.205 53710.437 798096.25
 36629.305 54995.367 797266.46
 57441.066 57440.927 795864.98
 72462.483 60675.790 794397.66
 79697.229 63629.977 793473.11
 -85684.029 81998.093 791160.26
 -77246.233 77246.400 792506.16
 -60675.786 72462.508 794397.65
 -38461.729 69027.211 796087.90
 -13144.042 67264.973 797058.75
 13144.275 67264.947 797058.75
 38461.947 69027.125 796087.89
 60675.971 72462.376 794397.65
 77246.383 77246.235 792506.16
 85684.145 81997.907 791160.27
 -92478.217 92478.362 789237.31
 -81997.907 85684.163 791160.27
 -63629.975 79697.247 793473.11
 -40080.242 75577.774 795412.83
 -13662.361 73491.224 796500.08
 13662.628 73491.200 796500.08
 40080.489 75577.707 795412.83
 63630.188 79697.142 793473.10
 81998.075 85684.030 791160.26
 92478.348 92478.217 789237.31
 -159680.47 -159680.29 767466.19
 -142598.91 -151898.48 772393.94
 -111330.95 -145765.77 778689.77
 -70433.086 -141717.23 784190.93
 -24065.636 -139676.69 787344.44
 24065.289 -139676.71 787344.45
 70432.763 -141717.30 784190.94
 111330.68 -145765.89 778689.79
 142598.69 -151898.63 772393.95
 159680.29 -159680.44 767466.19
 -151898.65 -142598.69 772393.95
 -137733.40 -137733.19 775924.66
 -108684.21 -133191.14 781311.63
 -69127.050 -130015.74 786331.58
 -23669.077 -128386.21 789276.10
 23668.762 -128386.24 789276.10
 69126.757 -130015.83 786331.59
 108683.96 -133191.29 781311.64
 137733.19 -137733.37 775924.67
 151898.49 -142598.89 772393.95
 -145765.92 -111330.67 778689.78
 -133191.32 -108683.95 781311.64
 -105916.40 -105916.18 785852.07
 -67698.521 -103820.75 790340.54
 -23231.556 -102702.21 793040.07
 23231.298 -102702.25 793040.07
 67698.278 -103820.87 790340.54
 105916.19 -105916.36 785852.08
 133191.15 -108684.18 781311.63
 145765.78 -111330.92 778689.77
 -141717.34 -70432.751 784190.94
 -130015.87 -69126.743 786331.59
 -103820.92 -67698.261 790340.54
 -66550.570 -66550.381 794444.50
 -22869.572 -65914.410 796951.86
 22869.390 -65914.461 796951.86
 66550.402 -66550.516 794444.51
 103820.77 -67698.476 790340.54
 130015.75 -69127.006 786331.58
 141717.24 -70433.047 784190.93
 -139676.75 -24065.272 787344.44
 -128386.29 -23668.744 789276.09
 -102702.30 -23231.276 793040.06
 -65914.517 -22869.369 796951.86
 -22664.734 -22664.624 799357.63
 22664.648 -22664.673 799357.63
 65914.431 -22869.518 796951.86
 102702.23 -23231.503 793040.07
 128386.22 -23669.031 789276.10
 139676.70 -24065.591 787344.44
 -139676.73 24065.657 787344.43
 -128386.26 23669.100 789276.09
 -102702.27 23231.579 793040.06
 -65914.471 22869.597 796951.86
 -22664.685 22664.757 799357.63
 22664.695 22664.707 799357.63
 65914.483 22869.450 796951.86
 102702.27 23231.350 793040.07
 128386.26 23668.813 789276.10
 139676.73 24065.337 787344.44
 -141717.28 70433.111 784190.91
 -130015.79 69127.077 786331.57
 -103820.81 67698.546 790340.53
 -66550.442 66550.595 794444.50
 -22869.431 65914.541 796951.86
 22869.537 65914.491 796951.86
 66550.538 66550.458 794444.50
 103820.90 67698.334 790340.53
 130015.85 69126.808 786331.59
 141717.32 70432.814 784190.93
 -145765.83 111330.98 778689.76
 -133191.19 108684.24 781311.62
 -105916.24 105916.43 785852.06
 -67698.323 103820.94 790340.53
 -23231.336 102702.33 793040.06
 23231.521 102702.29 793040.06
 67698.495 103820.82 790340.53
 105916.38 105916.24 785852.07
 133191.31 108684.01 781311.63
 145765.91 111330.73 778689.78
 -151898.54 142598.94 772393.93
 -137733.24 137733.43 775924.65
 -108684.01 133191.35 781311.62
 -69126.801 130015.90 786331.58
 -23668.802 128386.31 789276.09
 23669.046 128386.27 789276.09
 69127.026 130015.80 786331.57
 108684.20 133191.20 781311.62
 137733.39 137733.24 775924.65
 151898.65 142598.74 772393.94
 -159680.34 159680.50 767466.17
 -142598.74 151898.68 772393.93
 -111330.73 145765.95 778689.77
 -70432.810 141717.36 784190.93
 -24065.328 139676.77 787344.43
 24065.605 139676.75 787344.43
 70433.065 141717.28 784190.92
 111330.94 145765.83 778689.76
 142598.91 151898.53 772393.93
 159680.47 159680.34 767466.18
 -226859.27 -226859.07 732850.49
 -203315.85 -223638.36 740708.14
 -159270.18 -222564.84 751729.94
 -101138.65 -222239.85 761827.03
 -34645.024 -222119.26 767764.78
 34644.633 -222119.29 767764.79
 101138.29 -222239.94 761827.05
 159269.88 -222564.97 751729.97
 203315.61 -223638.51 740708.16
 226859.08 -226859.24 732850.49
 -223638.55 -203315.60 740708.15
 -203174.09 -203173.85 746619.50
 -160646.32 -203654.59 756781.06
 -102512.05 -204178.98 766682.61
 -35187.751 -204465.00 772629.20
 35187.384 -204465.04 772629.21
 102511.71 -204179.09 766682.63
 160646.03 -203654.76 756781.07
 203173.86 -203174.05 746619.51
 223638.36 -203315.81 740708.15
 -222565.01 -159269.86 751729.96
 -203654.81 -160646.02 756781.06
 -162159.55 -162159.28 766425.89
 -103960.00 -163236.60 776238.45
 -35764.052 -163768.62 782240.87
 35763.740 -163768.67 782240.87
 103959.71 -163236.74 776238.46
 162159.30 -162159.49 766425.90
 203654.61 -160646.27 756781.06
 222564.85 -159270.14 751729.95
 -222239.99 -101138.27 761827.04
 -204179.15 -102511.69 766682.61
 -163236.80 -103959.69 776238.45
 -104956.84 -104956.60 786109.52
 -36160.504 -105440.28 792196.17
 36160.277 -105440.33 792196.17
 104956.63 -104956.76 786109.52
 163236.62 -103959.93 776238.45
 204179.00 -102511.99 766682.61
 222239.87 -101138.59 761827.03
 -222119.35 -34644.609 767764.77
 -204465.10 -35187.357 772629.19
 -163768.75 -35763.711 782240.85
 -105440.42 -36160.243 792196.16
 -36352.254 -36352.102 798346.44
 36352.135 -36352.164 798346.44
 105440.31 -36160.418 792196.17
 163768.65 -35763.978 782240.86
 204465.02 -35187.681 772629.20
 222119.28 -34644.962 767764.78
 -222119.32 34645.053 767764.76
 -204465.07 35187.781 772629.18
 -163768.70 35764.086 782240.85
 -105440.37 36160.537 792196.15
 -36352.195 36352.288 798346.43
 36352.196 36352.226 798346.44
 105440.37 36160.362 792196.16
 163768.70 35763.821 782240.86
 204465.06 35187.454 772629.20
 222119.31 34644.700 767764.78
 -222239.91 101138.68 761827.01
 -204179.05 102512.08 766682.59
 -163236.68 103960.04 776238.43
 -104956.69 104956.87 786109.50
 -36160.336 105440.45 792196.15
 36160.447 105440.40 792196.15
 104956.79 104956.71 786109.51
 163236.76 103959.79 776238.44
 204179.11 102511.78 766682.61
 222239.96 101138.35 761827.04
 -222564.90 159270.22 751729.92
 -203654.66 160646.36 756781.03
 -162159.36 162159.58 766425.87
 -103959.77 163236.84 776238.43
 -35763.799 163768.77 782240.84
 35764.001 163768.72 782240.85
 103959.96 163236.70 776238.44
 162159.51 162159.37 766425.88
 203654.78 160646.10 756781.05
 222564.99 159269.94 751729.95
 -223638.42 203315.89 740708.11
 -203173.92 203174.13 746619.47
 -160646.09 203654.84 756781.04
 -102511.77 204179.17 766682.60
 -35187.438 204465.13 772629.18
 35187.702 204465.09 772629.18
 102512.01 204179.06 766682.59
 160646.29 203654.67 756781.04
 203174.08 203173.92 746619.48
 223638.54 203315.67 740708.14
 -226859.13 226859.30 732850.46
 -203315.67 223638.58 740708.12
 -159269.94 222565.04 751729.93
 -101138.34 222240.02 761827.02
 -34644.686 222119.37 767764.76
 34644.979 222119.34 767764.76
 101138.61 222239.92 761827.01
 159270.16 222564.90 751729.93
 203315.84 223638.42 740708.13
 226859.26 226859.13 732850.47
 -279965.61 -279965.41 695153.67
 -248097.75 -286287.98 704618.12
 -193602.69 -292924.50 718827.68
 -123065.51 -297917.19 732188.66
 -42227.191 -300563.74 740188.02
 42226.770 -300563.77 740188.03
 123065.12 -297917.29 732188.68
 193602.37 -292924.64 718827.71