# OOMMF OVF 2.0
#
# Segment count: 1
#
# Begin: Segment
# Begin: Header
#
# Title: Oxs_MinDriver::Magnetization
# Desc: Oxs vector field output
# Desc:  MIF source file: /home/ryan/Git/joommf/tools/omfvis/cube_example.mif
# Desc:  Iteration: 3985, State id: 8352
# Desc:  Stage: 19, Stage iteration: 104
# Desc:  Stage simulation time: 0 s
# Desc:  Total simulation time: -2 s
# meshunit: m
# meshtype: rectangular
# xbase: 2.5000000000000001e-09
# ybase: 2.5000000000000001e-09
# zbase: 2.5000000000000001e-09
# xnodes: 10
# ynodes: 10
# znodes: 10
# xstepsize: 5.0000000000000001e-09
# ystepsize: 5.0000000000000001e-09
# zstepsize: 5.0000000000000001e-09
# xmin: 0
# ymin: 0
# zmin: 0
# xmax: 4.9999999999999998e-08
# ymax: 4.9999999999999998e-08
# zmax: 4.9999999999999998e-08
# valuedim: 3
# valuelabels: Magnetization_x Magnetization_y Magnetization_z
# valueunits: A/m A/m A/m
#
# End: Header
#
# Begin: Data Text
 489248.21 45064.190 631352.05
 512441.67 60326.329 611362.63
 523879.31 97882.596 596631.77
 513120.92 156045.48 593596.43
 473954.87 229907.47 602087.48
 402734.12 310994.51 617322.96
 300515.91 387389.19 632154.88
 176494.15 446448.00 639948.43
 50419.760 479891.97 638092.11
 -45064.190 489248.21 631352.05
 479891.97 -50419.760 638092.11
 503347.81 -26249.097 621250.32
 514131.81 24789.966 612416.48
 501130.39 101581.51 615263.79
 457322.25 198135.42 625778.49
 379536.92 302125.09 636138.47
 271770.49 396557.02 639439.86
 146986.76 466047.62 633399.17
 26249.097 503347.81 621250.32
 -60326.329 512441.67 611362.63
 446448.00 -176494.15 639948.43
 466047.62 -146986.76 633399.17
 472533.26 -83398.556 640122.64
 454170.26 14481.536 658422.10
 402676.55 139714.08 677001.90
 316185.73 273711.60 681988.67
 203826.75 390945.07 667545.21
 83398.556 472533.26 640122.64
 -24789.965 514131.81 612416.48
 -97882.596 523879.31 596631.77
 387389.19 -300515.91 632154.88
 396557.02 -271770.49 639439.86
 390945.07 -203826.75 667545.21
 360357.26 -92109.328 708278.56
 297085.50 57732.004 740545.22
 202662.75 220584.50 741802.05
 92109.328 360357.26 708278.56
 -14481.535 454170.26 658422.10
 -101581.51 501130.39 615263.79
 -156045.48 513120.92 593596.43
 310994.51 -402734.12 617322.96
 302125.09 -379536.92 636138.47
 273711.60 -316185.73 681988.67
 220584.50 -202662.75 741802.05
 140228.39 -41078.351 786542.16
 41078.351 140228.39 786542.16
 -57732.004 297085.50 740545.22
 -139714.08 402676.55 677001.90
 -198135.42 457322.25 625778.49
 -229907.47 473954.87 602087.48
 229907.47 -473954.87 602087.48
 198135.42 -457322.25 625778.49
 139714.08 -402676.55 677001.90
 57732.005 -297085.50 740545.22
 -41078.352 -140228.39 786542.16
 -140228.39 41078.351 786542.16
 -220584.50 202662.75 741802.05
 -273711.60 316185.73 681988.67
 -302125.09 379536.92 636138.47
 -310994.51 402734.12 617322.96
 156045.48 -513120.92 593596.43
 101581.51 -501130.39 615263.79
 14481.536 -454170.26 658422.10
 -92109.328 -360357.26 708278.56
 -202662.75 -220584.50 741802.06
 -297085.50 -57732.004 740545.22
 -360357.26 92109.328 708278.56
 -390945.07 203826.75 667545.21
 -396557.02 271770.49 639439.86
 -387389.19 300515.91 632154.88
 97882.596 -523879.31 596631.77
 24789.966 -514131.81 612416.48
 -83398.556 -472533.26 640122.64
 -203826.75 -390945.07 667545.21
 -316185.73 -273711.60 681988.67
 -402676.55 -139714.08 677001.90
 -454170.26 -14481.535 658422.10
 -472533.26 83398.556 640122.64
 -466047.62 146986.76 633399.17
 -446448.00 176494.15 639948.43
 60326.329 -512441.67 611362.63
 -26249.097 -503347.81 621250.32
 -146986.76 -466047.62 633399.17
 -271770.49 -396557.02 639439.86
 -379536.92 -302125.09 636138.47
 -457322.25 -198135.42 625778.49
 -501130.39 -101581.51 615263.79
 -514131.81 -24789.966 612416.48
 -503347.81 26249.097 621250.32
 -479891.97 50419.760 638092.11
 45064.190 -489248.21 631352.05
 -50419.760 -479891.97 638092.11
 -176494.15 -446448.00 639948.43
 -300515.91 -387389.19 632154.88
 -402734.12 -310994.51 617322.96
 -473954.87 -229907.47 602087.48
 -513120.92 -156045.48 593596.43
 -523879.31 -97882.596 596631.77
 -512441.67 -60326.329 611362.63
 -489248.21 -45064.190 631352.05
 437356.26 1634.4379 669863.29
 466444.61 12669.117 649822.22
 486072.38 45886.385 633741.33
 484372.24 98882.928 628971.94
 455788.69 166908.23 635923.19
 397196.50 242938.88 650550.26
 309078.59 317194.13 666226.92
 198892.59 378650.92 676065.98
 84617.185 418959.60 676249.06
 -1634.4377 437356.26 669863.29
 418959.60 -84617.185 676249.06
 447334.13 -62087.708 660331.20
 465272.39 -15304.948 650605.38
 460769.79 54660.018 651692.78
 428301.68 142761.84 660436.77
 365537.71 239176.14 670206.65
 275297.73 330154.53 674691.89
 167857.09 402194.20 670867.97
 62087.709 447334.13 660331.20
 -12669.117 466444.61 649822.22
 378650.92 -198892.59 676065.99
 402194.20 -167857.09 670867.96
 414324.12 -107434.60 675864.87
 403817.43 -17844.204 690371.69
 365335.44 95229.192 705309.45
 297953.57 217609.27 709837.92
 207643.56 329527.94 698781.43
 107434.60 414324.12 675864.87
 15304.947 465272.39 650605.38
 -45886.384 486072.38 633741.33
 317194.13 -309078.59 666226.92
 330154.53 -275297.73 674691.89
 329527.94 -207643.56 698781.43
 307229.01 -103865.15 731315.50
 259819.82 30330.839 756024.93
 189062.76 176150.70 757117.04
 103865.16 307229.01 731315.50
 17844.203 403817.43 690371.69
 -54660.017 460769.79 651692.78
 -98882.928 484372.24 628971.94
 242938.88 -397196.50 650550.26
 239176.14 -365537.72 670206.65
 217609.27 -297953.57 709837.92
 176150.70 -189062.76 757117.04
 116158.09 -43778.035 790310.56
 43778.037 116158.09 790310.56
 -30330.840 259819.82 756024.93
 -95229.190 365335.44 705309.45
 -142761.84 428301.68 660436.77
 -166908.23 455788.69 635923.20
 166908.23 -455788.69 635923.19
 142761.84 -428301.68 660436.77
 95229.193 -365335.45 705309.44
 30330.838 -259819.82 756024.93
 -43778.033 -116158.09 790310.56
 -116158.09 43778.035 790310.56
 -176150.69 189062.76 757117.04
 -217609.27 297953.57 709837.92
 -239176.14 365537.71 670206.65
 -242938.88 397196.50 650550.26
 98882.928 -484372.24 628971.94
 54660.019 -460769.79 651692.78
 -17844.205 -403817.43 690371.69
 -103865.15 -307229.01 731315.50
 -189062.76 -176150.70 757117.04
 -259819.82 -30330.839 756024.93
 -307229.01 103865.16 731315.50
 -329527.93 207643.56 698781.43
 -330154.53 275297.74 674691.89
 -317194.13 309078.59 666226.92
 45886.385 -486072.38 633741.33
 -15304.948 -465272.39 650605.38
 -107434.60 -414324.12 675864.87
 -207643.56 -329527.94 698781.43
 -297953.57 -217609.27 709837.92
 -365335.45 -95229.191 705309.44
 -403817.43 17844.204 690371.69
 -414324.12 107434.60 675864.87
 -402194.20 167857.09 670867.97
 -378650.92 198892.59 676065.98
 12669.117 -466444.61 649822.22
 -62087.708 -447334.13 660331.20
 -167857.09 -402194.20 670867.97
 -275297.73 -330154.53 674691.89
 -365537.71 -239176.14 670206.65
 -428301.68 -142761.84 660436.77
 -460769.79 -54660.018 651692.78
 -465272.39 15304.947 650605.38
 -447334.13 62087.709 660331.20
 -418959.60 84617.185 676249.06
 1634.4378 -437356.26 669863.29
 -84617.185 -418959.60 676249.06
 -198892.59 -378650.92 676065.99
 -309078.59 -317194.13 666226.92
 -397196.50 -242938.88 650550.26
 -455788.69 -166908.23 635923.19
 -484372.24 -98882.928 628971.94
 -486072.38 -45886.385 633741.33
 -466444.61 -12669.117 649822.22
 -437356.26 -1634.4376 669863.29
 369356.45 -54340.034 707547.15
 403240.14 -43083.433 689594.96
 431719.62 -11664.507 673410.80
 441280.30 37123.709 666253.35
 426500.34 98825.887 669575.17
 384909.54 167972.21 680903.80
 316699.09 237428.12 695219.09
 227150.91 298742.90 706509.12
 130407.51 344132.79 710328.45
 54340.034 369356.45 707547.15
 344132.79 -130407.51 710328.45
 375710.91 -107664.62 698032.69
 401430.59 -63273.674 689093.55
 408062.52 732.12824 688102.06
 390593.65 79873.651 693582.58
 347255.77 166842.51 701125.53
 279711.38 251732.33 705969.11
 194974.28 324030.33 704974.73
 107664.62 375710.91 698032.70
 43083.433 403240.14 689594.96
 298742.90 -227150.91 706509.12
 324030.33 -194974.28 704974.73
 342676.89 -136831.31 709823.74
 343211.34 -55004.223 720541.82
 321492.04 45365.284 731153.10
 276850.04 154149.64 734569.22
 212552.94 257589.75 726958.57
 136831.31 342676.89 709823.74
 63273.676 401430.59 689093.55
 11664.507 431719.62 673410.80
 237428.12 -316699.09 695219.09
 251732.33 -279711.38 705969.11
 257589.75 -212552.94 726958.57
 247467.88 -116972.81 751716.04
 219392.27 1064.1013 769328.21
 174418.34 128389.47 770126.21
 116972.81 247467.88 751716.04
 55004.225 343211.34 720541.82
 -732.12914 408062.51 688102.06
 -37123.709 441280.30 666253.35
 167972.21 -384909.54 680903.80
 166842.51 -347255.77 701125.53
 154149.64 -276850.04 734569.22
 128389.47 -174418.34 770126.21
 91359.588 -46549.171 793401.92
 46549.169 91359.587 793401.92
 -1064.0989 219392.27 769328.21
 -45365.286 321492.04 731153.10
 -79873.650 390593.65 693582.58
 -98825.888 426500.34 669575.17
 98825.887 -426500.34 669575.17
 79873.652 -390593.65 693582.58
 45365.283 -321492.04 731153.10
 1064.1031 -219392.27 769328.21
 -46549.173 -91359.585 793401.92
 -91359.583 46549.170 793401.92
 -128389.48 174418.34 770126.21
 -154149.64 276850.04 734569.22
 -166842.51 347255.77 701125.53
 -167972.21 384909.54 680903.80
 37123.709 -441280.30 666253.35
 732.12752 -408062.51 688102.06
 -55004.222 -343211.35 720541.82
 -116972.81 -247467.88 751716.04
 -174418.34 -128389.47 770126.21
 -219392.28 -1064.1001 769328.21
 -247467.88 116972.81 751716.04
 -257589.75 212552.94 726958.57
 -251732.33 279711.38 705969.11
 -237428.12 316699.09 695219.09
 -11664.507 -431719.62 673410.80
 -63273.674 -401430.59 689093.55
 -136831.31 -342676.89 709823.74
 -212552.94 -257589.75 726958.57
 -276850.04 -154149.64 734569.22
 -321492.04 -45365.285 731153.10
 -343211.35 55004.225 720541.82
 -342676.89 136831.31 709823.74
 -324030.33 194974.28 704974.73
 -298742.90 227150.91 706509.12
 -43083.433 -403240.14 689594.96
 -107664.62 -375710.91 698032.69
 -194974.28 -324030.33 704974.73
 -279711.38 -251732.33 705969.11
 -347255.77 -166842.51 701125.53
 -390593.65 -79873.650 693582.58
 -408062.51 -732.12890 688102.06
 -401430.59 63273.675 689093.55
 -375710.91 107664.62 698032.70
 -344132.79 130407.51 710328.45
 -54340.034 -369356.45 707547.15
 -130407.51 -344132.79 710328.45
 -227150.91 -298742.90 706509.12
 -316699.09 -237428.12 695219.09
 -384909.54 -167972.21 680903.80
 -426500.34 -98825.888 669575.17
 -441280.30 -37123.709 666253.35
 -431719.62 11664.507 673410.80
 -403240.14 43083.433 689594.96
 -369356.45 54340.034 707547.15
 298145.31 -112152.14 733846.90
 337545.14 -97418.193 718730.11
 375561.56 -64368.809 703427.45
 397284.45 -16779.978 694178.29
 397050.93 40881.034 693310.39
 372786.49 104146.12 700131.29
 324572.85 167877.71 711666.73
 255966.69 225881.67 723504.33
 177410.02 271353.76 731363.67
 112152.14 298145.31 733846.90
 271353.76 -177410.02 731363.67
 306646.07 -152628.31 722961.12
 340691.42 -107761.14 715763.16
 359236.00 -46453.304 713296.28
 357009.30 26711.196 715423.56
 332317.49 105940.42 719959.52
 286003.74 184131.41 724083.89
 222564.61 253470.74 725408.56
 152628.31 306646.07 722961.12
 97418.193 337545.14 718730.11
 225881.67 -255966.69 723504.33
 253470.74 -222564.61 725408.56
 279297.18 -164982.55 731282.33
 291534.93 -87704.280 739807.64
 285882.00 3922.2037 747165.37
 261306.17 102117.26 749193.67
 219365.65 197163.09 743643.35
 164982.55 279297.18 731282.33
 107761.14 340691.42 715763.16
 64368.809 375561.56 703427.45
 167877.71 -324572.85 711666.73
 184131.41 -286003.74 724083.89
 197163.09 -219365.65 743643.35
 199411.93 -129521.35 763844.95
 188550.57 -22823.803 777127.89
 164599.87 90858.736 777593.45
 129521.35 199411.93 763844.95
 87704.278 291534.93 739807.64
 46453.306 359236.00 713296.28
 16779.977 397284.45 694178.29
 104146.12 -372786.49 700131.29
 105940.42 -332317.49 719959.52
 102117.26 -261306.17 749193.67
 90858.736 -164599.87 777593.45
 72804.342 -49425.883 795145.65
 49425.887 72804.343 795145.65
 22823.800 188550.57 777127.89
 -3922.2010 285882.00 747165.37
 -26711.197 357009.30 715423.56
 -40881.033 397050.93 693310.39
 40881.034 -397050.93 693310.39
 26711.196 -357009.29 715423.56
 3922.2038 -285882.00 747165.37
 -22823.804 -188550.56 777127.89
 -49425.882 -72804.345 795145.65
 -72804.347 49425.886 795145.65
 -90858.732 164599.87 777593.45
 -102117.26 261306.17 749193.67
 -105940.42 332317.49 719959.52
 -104146.12 372786.49 700131.29
 -16779.978 -397284.45 694178.29
 -46453.304 -359236.00 713296.28
 -87704.281 -291534.93 739807.64
 -129521.35 -199411.93 763844.95
 -164599.87 -90858.733 777593.45
 -188550.56 22823.801 777127.89
 -199411.93 129521.35 763844.95
 -197163.08 219365.65 743643.35
 -184131.41 286003.74 724083.89
 -167877.71 324572.85 711666.73
 -64368.809 -375561.56 703427.45
 -107761.14 -340691.42 715763.16
 -164982.55 -279297.18 731282.33
 -219365.65 -197163.09 743643.35
 -261306.17 -102117.26 749193.67
 -285882.01 -3922.2008 747165.37
 -291534.93 87704.278 739807.64
 -279297.18 164982.55 731282.33
 -253470.74 222564.61 725408.56
 -225881.67 255966.69 723504.33
 -97418.194 -337545.14 718730.11
 -152628.31 -306646.07 722961.12
 -222564.61 -253470.74 725408.56
 -286003.74 -184131.41 724083.89
 -332317.49 -105940.42 719959.52
 -357009.29 -26711.198 715423.56
 -359236.00 46453.306 713296.28
 -340691.42 107761.14 715763.16
 -306646.07 152628.31 722961.12
 -271353.76 177410.02 731363.67
 -112152.14 -298145.31 733846.90
 -177410.02 -271353.76 731363.67
 -255966.69 -225881.67 723504.33
 -324572.85 -167877.71 711666.73
 -372786.49 -104146.13 700131.29
 -397050.93 -40881.033 693310.39
 -397284.45 16779.977 694178.29
 -375561.56 64368.809 703427.45
 -337545.14 97418.193 718730.11
 -298145.31 112152.14 733846.90
 231246.41 -170154.60 746707.78
 277625.09 -150564.32 735020.20
 326709.87 -113517.23 721369.88
 361752.21 -64117.251 710650.63
 376353.15 -7291.2914 705907.32
 368439.58 52735.077 708146.37
 338035.60 111815.95 716400.11
 287665.97 165170.25 727988.38
 225215.90 207036.07 739198.12
 170154.60 231246.41 746707.78
 207036.07 -225215.90 739198.12
 247361.13 -197535.84 734705.43
 291013.34 -150048.72 729929.19
 322272.51 -88082.437 726898.83
 334963.32 -16880.052 726302.03
 327016.13 58153.770 727790.21
 298686.63 131286.40 730445.19
 252907.40 196437.53 733109.91
 197535.83 247361.13 734705.43
 150564.32 277625.09 735020.20
 165170.25 -287665.97 727988.38
 196437.53 -252907.40 733109.91
 230525.22 -194274.82 741023.22
 254744.62 -117931.26 749131.09
 263860.91 -29921.283 754640.40
 256101.93 62693.847 755302.11
 231924.30 152090.44 750386.31
 194274.82 230525.22 741023.22
 150048.72 291013.34 729929.19
 113517.23 326709.87 721369.88
 111815.95 -338035.60 716400.11
 131286.40 -298686.63 730445.19
 152090.44 -231924.30 750386.31
 166077.94 -144362.86 769140.74
 169883.88 -42899.948 780576.11
 162461.43 63811.196 780726.85
 144362.85 166077.94 769140.74
 117931.26 254744.62 749131.09
 88082.436 322272.51 726898.83
 64117.252 361752.21 710650.63
 52735.076 -368439.58 708146.37
 58153.772 -327016.13 727790.21
 62693.846 -256101.93 755302.11
 63811.197 -162461.42 780726.85
 60768.455 -53606.290 795885.39
 53606.286 60768.455 795885.39
 42899.952 169883.88 780576.11
 29921.280 263860.91 754640.40
 16880.054 334963.32 726302.03
 7291.2908 376353.15 705907.32
 -7291.2908 -376353.15 705907.32
 -16880.053 -334963.32 726302.03
 -29921.282 -263860.91 754640.40
 -42899.948 -169883.89 780576.11
 -53606.290 -60768.450 795885.39
 -60768.450 53606.286 795885.39
 -63811.200 162461.43 780726.85
 -62693.844 256101.93 755302.11
 -58153.773 327016.13 727790.21
 -52735.076 368439.58 708146.37
 -64117.252 -361752.21 710650.63
 -88082.437 -322272.51 726898.83
 -117931.26 -254744.63 749131.09
 -144362.86 -166077.94 769140.74
 -162461.42 -63811.201 780726.85
 -169883.89 42899.953 780576.11
 -166077.94 144362.85 769140.74
 -152090.45 231924.30 750386.31
 -131286.40 298686.63 730445.19
 -111815.95 338035.60 716400.11
 -113517.23 -326709.87 721369.88
 -150048.72 -291013.34 729929.19
 -194274.82 -230525.22 741023.22
 -231924.30 -152090.45 750386.31
 -256101.93 -62693.843 755302.11
 -263860.91 29921.279 754640.40
 -254744.63 117931.26 749131.09
 -230525.22 194274.82 741023.22
 -196437.53 252907.40 733109.91
 -165170.25 287665.97 727988.38
 -150564.32 -277625.09 735020.20
 -197535.84 -247361.13 734705.43
 -252907.40 -196437.53 733109.91
 -298686.63 -131286.40 730445.19
 -327016.13 -58153.774 727790.21
 -334963.32 16880.055 726302.03
 -322272.51 88082.435 726898.83
 -291013.34 150048.72 729929.19
 -247361.13 197535.84 734705.43
 -207036.07 225215.90 739198.12
 -170154.60 -231246.41 746707.78
 -225215.90 -207036.07 739198.12
 -287665.97 -165170.25 727988.38
 -338035.60 -111815.95 716400.11
 -368439.58 -52735.075 708146.37
 -376353.15 7291.2902 705907.32
 -361752.21 64117.252 710650.63
 -326709.87 113517.23 721369.88
 -277625.09 150564.32 735020.20
 -231246.41 170154.60 746707.78
 170154.60 -231246.41 746707.78
 225215.90 -207036.07 739198.12
 287665.97 -165170.25 727988.38
 338035.60 -111815.95 716400.11
 368439.58 -52735.075 708146.37
 376353.15 7291.2900 705907.32
 361752.21 64117.252 710650.63
 326709.87 113517.23 721369.88
 277625.09 150564.32 735020.20
 231246.41 170154.60 746707.78
 150564.32 -277625.09 735020.20
 197535.83 -247361.13 734705.43
 252907.40 -196437.53 733109.91
 298686.63 -131286.40 730445.19
 327016.13 -58153.774 727790.21
 334963.32 16880.056 726302.03
 322272.51 88082.435 726898.83
 291013.34 150048.72 729929.19
 247361.13 197535.84 734705.43
 207036.07 225215.90 739198.12
 113517.23 -326709.87 721369.88
 150048.72 -291013.34 729929.19
 194274.82 -230525.22 741023.22
 231924.30 -152090.45 750386.31
 256101.93 -62693.843 755302.11
 263860.91 29921.279 754640.40
 254744.62 117931.26 749131.09
 230525.22 194274.82 741023.22
 196437.53 252907.40 733109.91
 165170.25 287665.97 727988.38
 64117.252 -361752.21 710650.63
 88082.436 -322272.51 726898.83
 117931.26 -254744.63 749131.09
 144362.85 -166077.94 769140.74
 162461.43 -63811.201 780726.85
 169883.88 42899.953 780576.11
 166077.94 144362.85 769140.74
 152090.44 231924.30 750386.31
 131286.40 298686.63 730445.19
 111815.95 338035.60 716400.11
 7291.2908 -376353.15 705907.32
 16880.054 -334963.32 726302.03
 29921.280 -263860.91 754640.40
 42899.952 -169883.89 780576.11
 53606.286 -60768.450 795885.39
 60768.454 53606.286 795885.39
 63811.197 162461.43 780726.85
 62693.846 256101.93 755302.11
 58153.772 327016.13 727790.21
 52735.076 368439.58 708146.37
 -52735.076 -368439.58 708146.37
 -58153.772 -327016.13 727790.21
 -62693.844 -256101.93 755302.11
 -63811.200 -162461.42 780726.85
 -60768.450 -53606.291 795885.39
 -53606.290 60768.455 795885.39
 -42899.948 169883.88 780576.11
 -29921.282 263860.91 754640.40
 -16880.053 334963.32 726302.03
 -7291.2909 376353.15 705907.32
 -111815.95 -338035.60 716400.11
 -131286.40 -298686.63 730445.19
 -152090.45 -231924.30 750386.31
 -166077.94 -144362.86 769140.74
 -169883.89 -42899.947 780576.11
 -162461.42 63811.196 780726.85
 -144362.86 166077.95 769140.74
 -117931.26 254744.62 749131.09
 -88082.437 322272.51 726898.83
 -64117.252 361752.21 710650.63
 -165170.25 -287665.97 727988.38
 -196437.53 -252907.40 733109.91
 -230525.22 -194274.82 741023.22
 -254744.63 -117931.26 749131.09
 -263860.91 -29921.284 754640.40
 -256101.93 62693.848 755302.11
 -231924.30 152090.44 750386.31
 -194274.82 230525.22 741023.22
 -150048.72 291013.34 729929.19
 -113517.23 326709.87 721369.88
 -207036.07 -225215.90 739198.12
 -247361.13 -197535.84 734705.43
 -291013.34 -150048.72 729929.19
 -322272.51 -88082.437 726898.83
 -334963.32 -16880.052 726302.03
 -327016.13 58153.770 727790.21
 -298686.63 131286.40 730445.19
 -252907.40 196437.53 733109.91
 -197535.84 247361.13 734705.43
 -150564.32 277625.09 735020.20
 -231246.41 -170154.60 746707.78
 -277625.09 -150564.32 735020.20
 -326709.87 -113517.23 721369.88
 -361752.21 -64117.251 710650.63
 -376353.15 -7291.2915 705907.32
 -368439.58 52735.077 708146.37
 -338035.60 111815.95 716400.11
 -287665.97 165170.25 727988.38
 -225215.90 207036.07 739198.12
 -170154.60 231246.41 746707.78
 112152.14 -298145.31 733846.90
 177410.02 -271353.76 731363.67
 255966.69 -225881.67 723504.33
 324572.85 -167877.71 711666.73
 372786.49 -104146.13 700131.29
 397050.93 -40881.033 693310.39
 397284.45 16779.977 694178.29
 375561.56 64368.810 703427.45
 337545.14 97418.193 718730.11
 298145.31 112152.14 733846.90
 97418.193 -337545.14 718730.11
 152628.31 -306646.07 722961.12
 222564.61 -253470.74 725408.56
 286003.74 -184131.41 724083.89
 332317.49 -105940.42 719959.52
 357009.30 -26711.198 715423.56
 359236.00 46453.307 713296.28
 340691.42 107761.14 715763.16
 306646.07 152628.31 722961.12
 271353.76 177410.02 731363.67
 64368.810 -375561.56 703427.45
 107761.14 -340691.42 715763.16
 164982.55 -279297.18 731282.33
 219365.65 -197163.09 743643.35
 261306.17 -102117.26 749193.67
 285882.00 -3922.2002 747165.37
 291534.93 87704.278 739807.64
 279297.18 164982.55 731282.33
 253470.74 222564.61 725408.56
 225881.67 255966.69 723504.33
 16779.977 -397284.45 694178.29
 46453.306 -359236.00 713296.28
 87704.278 -291534.93 739807.64
 129521.35 -199411.93 763844.95
 164599.87 -90858.732 777593.45
 188550.57 22823.800 777127.89
 199411.93 129521.35 763844.95
 197163.09 219365.65 743643.35
 184131.41 286003.74 724083.89
 167877.71 324572.85 711666.73
 -40881.033 -397050.93 693310.39
 -26711.197 -357009.29 715423.56
 -3922.2013 -285882.00 747165.37
 22823.801 -188550.56 777127.89
 49425.886 -72804.346 795145.65
 72804.342 49425.887 795145.65
 90858.736 164599.87 777593.45
 102117.26 261306.17 749193.67
 105940.42 332317.49 719959.52
 104146.12 372786.49 700131.29
 -104146.12 -372786.49 700131.29
 -105940.42 -332317.49 719959.52
 -102117.26 -261306.17 749193.67
 -90858.733 -164599.87 777593.45
 -72804.346 -49425.882 795145.65
 -49425.883 72804.342 795145.65
 -22823.804 188550.57 777127.89
 3922.2034 285882.00 747165.37
 26711.196 357009.29 715423.56
 40881.034 397050.93 693310.39
 -167877.71 -324572.85 711666.73
 -184131.41 -286003.74 724083.89
 -197163.09 -219365.65 743643.35
 -199411.93 -129521.35 763844.95
 -188550.56 -22823.804 777127.89
 -164599.87 90858.736 777593.45
 -129521.35 199411.93 763844.95
 -87704.280 291534.93 739807.64
 -46453.305 359236.00 713296.28
 -16779.977 397284.45 694178.29
 -225881.67 -255966.69 723504.33
 -253470.74 -222564.61 725408.56
 -279297.18 -164982.55 731282.33
 -291534.93 -87704.281 739807.64
 -285882.00 3922.2046 747165.37
 -261306.17 102117.26 749193.67
 -219365.65 197163.09 743643.35
 -164982.55 279297.18 731282.33
 -107761.14 340691.42 715763.16
 -64368.809 375561.56 703427.45
 -271353.76 -177410.02 731363.67
 -306646.07 -152628.31 722961.12
 -340691.42 -107761.14 715763.16
 -359236.00 -46453.304 713296.28
 -357009.29 26711.195 715423.56
 -332317.49 105940.42 719959.52
 -286003.74 184131.41 724083.89
 -222564.61 253470.74 725408.56
 -152628.31 306646.07 722961.12
 -97418.193 337545.14 718730.11
 -298145.31 -112152.14 733846.90
 -337545.14 -97418.193 718730.11
 -375561.56 -64368.809 703427.45
 -397284.45 -16779.978 694178.29
 -397050.93 40881.034 693310.39
 -372786.49 104146.12 700131.29
 -324572.85 167877.71 711666.73
 -255966.69 225881.67 723504.33
 -177410.02 271353.76 731363.67
 -112152.14 298145.31 733846.90
 54340.034 -369356.45 707547.15
 130407.51 -344132.79 710328.45
 227150.91 -298742.90 706509.12
 316699.09 -237428.12 695219.09
 384909.54 -167972.21 680903.80
 426500.34 -98825.888 669575.17
 441280.30 -37123.708 666253.35
 431719.62 11664.507 673410.80
 403240.14 43083.433 689594.96
 369356.45 54340.034 707547.15
 43083.434 -403240.14 689594.96
 107664.62 -375710.91 698032.69
 194974.28 -324030.33 704974.73
 279711.38 -251732.33 705969.11
 347255.77 -166842.51 701125.53
 390593.65 -79873.650 693582.58
 408062.51 -732.12961 688102.06
 401430.59 63273.676 689093.55
 375710.91 107664.62 698032.69
 344132.79 130407.51 710328.45
 11664.506 -431719.62 673410.80
 63273.676 -401430.59 689093.55
 136831.31 -342676.89 709823.74
 212552.94 -257589.75 726958.57
 276850.04 -154149.64 734569.22
 321492.04 -45365.286 731153.10
 343211.34 55004.225 720541.82
 342676.89 136831.31 709823.74
 324030.33 194974.28 704974.73
 298742.90 227150.91 706509.12
 -37123.708 -441280.30 666253.35
 -732.12977 -408062.51 688102.06
 55004.225 -343211.34 720541.82
 116972.81 -247467.88 751716.04
 174418.34 -128389.48 770126.21
 219392.27 -1064.0995 769328.21
 247467.88 116972.81 751716.04
 257589.75 212552.94 726958.57
 251732.33 279711.38 705969.11
 237428.12 316699.09 695219.09
 -98825.888 -426500.34 669575.17
 -79873.650 -390593.65 693582.58
 -45365.286 -321492.04 731153.10
 -1064.0996 -219392.27 769328.21
 46549.170 -91359.584 793401.92
 91359.587 46549.170 793401.92
 128389.47 174418.34 770126.21
 154149.64 276850.04 734569.22
 166842.51 347255.77 701125.53
 167972.21 384909.54 680903.80
 -167972.21 -384909.54 680903.80
 -166842.51 -347255.77 701125.53
 -154149.64 -276850.04 734569.22
 -128389.48 -174418.34 770126.21
 -91359.585 -46549.173 793401.92
 -46549.173 91359.587 793401.92
 1064.1023 219392.27 769328.21
 45365.284 321492.04 731153.10
 79873.651 390593.65 693582.58
 98825.887 426500.34 669575.17
 -237428.12 -316699.09 695219.09
 -251732.33 -279711.38 705969.11
 -257589.75 -212552.94 726958.57
 -247467.88 -116972.81 751716.04
 -219392.27 1064.1026 769328.21
 -174418.34 128389.47 770126.21
 -116972.81 247467.88 751716.04
 -55004.223 343211.34 720541.82
 732.12801 408062.51 688102.06
 37123.709 441280.30 666253.35
 -298742.90 -227150.91 706509.12
 -324030.33 -194974.28 704974.73
 -342676.89 -136831.31 709823.74
 -343211.34 -55004.223 720541.82
 -321492.04 45365.284 731153.10
 -276850.04 154149.64 734569.22
 -212552.94 257589.75 726958.57
 -136831.31 342676.89 709823.74
 -63273.675 401430.59 689093.55
 -11664.507 431719.62 673410.80
 -344132.79 -130407.51 710328.45
 -375710.91 -107664.62 698032.69
 -401430.59 -63273.675 689093.55
 -408062.52 732.12812 688102.06
 -390593.65 79873.652 693582.58
 -347255.77 166842.51 701125.53
 -279711.38 251732.33 705969.11
 -194974.28 324030.33 704974.73
 -107664.62 375710.91 698032.70
 -43083.433 403240.14 689594.96
 -369356.45 -54340.034 707547.15
 -403240.14 -43083.433 689594.96
 -431719.62 -11664.507 673410.80
 -441280.30 37123.709 666253.35
 -426500.34 98825.887 669575.17
 -384909.54 167972.21 680903.80
 -316699.09 237428.12 695219.09
 -227150.91 298742.90 706509.12
 -130407.51 344132.79 710328.45
 -54340.034 369356.45 707547.15
 -1634.4375 -437356.26 669863.29
 84617.185 -418959.60 676249.06
 198892.59 -378650.92 676065.99
 309078.59 -317194.13 666226.92
 397196.50 -242938.88 650550.26
 455788.69 -166908.23 635923.19
 484372.24 -98882.928 628971.94
 486072.38 -45886.384 633741.33
 466444.61 -12669.117 649822.22
 437356.26 -1634.4376 669863.29
 -12669.117 -466444.61 649822.22
 62087.710 -447334.13 660331.20
 167857.09 -402194.20 670867.97
 275297.73 -330154.53 674691.89
 365537.71 -239176.14 670206.65
 428301.68 -142761.84 660436.77
 460769.79 -54660.017 651692.78
 465272.39 15304.947 650605.38
 447334.13 62087.709 660331.20
 418959.60 84617.185 676249.06
 -45886.384 -486072.38 633741.33
 15304.947 -465272.39 650605.38
 107434.60 -414324.12 675864.87
 207643.56 -329527.94 698781.43
 297953.57 -217609.27 709837.92
 365335.45 -95229.191 705309.45
 403817.43 17844.204 690371.69
 414324.12 107434.60 675864.87
 402194.20 167857.09 670867.97
 378650.92 198892.59 676065.98
 -98882.929 -484372.24 628971.94
 -54660.017 -460769.79 651692.78
 17844.203 -403817.43 690371.69
 103865.16 -307229.01 731315.50
 189062.76 -176150.69 757117.04
 259819.82 -30330.840 756024.93
 307229.01 103865.16 731315.50
 329527.94 207643.56 698781.43
 330154.53 275297.74 674691.89
 317194.13 309078.59 666226.92
 -166908.23 -455788.69 635923.19
 -142761.84 -428301.68 660436.77
 -95229.191 -365335.45 705309.45
 -30330.840 -259819.82 756024.93
 43778.036 -116158.09 790310.56
 116158.09 43778.036 790310.56
 176150.70 189062.76 757117.04
 217609.27 297953.57 709837.92
 239176.14 365537.71 670206.65
 242938.88 397196.50 650550.26
 -242938.88 -397196.50 650550.26
 -239176.14 -365537.71 670206.65
 -217609.27 -297953.57 709837.92
 -176150.69 -189062.76 757117.04
 -116158.09 -43778.034 790310.56
 -43778.034 116158.09 790310.56
 30330.838 259819.82 756024.93
 95229.192 365335.45 705309.45
 142761.84 428301.68 660436.77
 166908.23 455788.69 635923.19
 -317194.13 -309078.59 666226.92
 -330154.53 -275297.73 674691.89
 -329527.94 -207643.56 698781.43
 -307229.01 -103865.15 731315.50
 -259819.82 30330.839 756024.93
 -189062.76 176150.70 757117.04
 -103865.15 307229.01 731315.50
 -17844.205 403817.43 690371.69
 54660.018 460769.79 651692.78
 98882.928 484372.24 628971.94
 -378650.92 -198892.59 676065.99
 -402194.20 -167857.09 670867.97
 -414324.12 -107434.60 675864.87
 -403817.43 -17844.205 690371.69
 -365335.45 95229.192 705309.45
 -297953.57 217609.27 709837.92
 -207643.56 329527.94 698781.43
 -107434.60 414324.12 675864.87
 -15304.948 465272.39 650605.38
 45886.385 486072.38 633741.33
 -418959.60 -84617.185 676249.06
 -447334.13 -62087.709 660331.20
 -465272.39 -15304.947 650605.38
 -460769.79 54660.018 651692.78
 -428301.68 142761.84 660436.77
 -365537.71 239176.14 670206.65
 -275297.73 330154.53 674691.89
 -167857.09 402194.20 670867.97
 -62087.709 447334.13 660331.20
 12669.117 466444.61 649822.22
 -437356.26 1634.4377 669863.29
 -466444.61 12669.117 649822.22
 -486072.38 45886.385 633741.33
 -484372.24 98882.928 628971.94
 -455788.69 166908.23 635923.19
 -397196.50 242938.88 650550.26
 -309078.59 317194.13 666226.92
 -198892.59 378650.92 676065.98
 -84617.185 418959.60 676249.06
 1634.4377 437356.26 669863.29
 -45064.190 -489248.21 631352.05
 50419.760 -479891.97 638092.11
 176494.15 -446448.00 639948.43
 300515.91 -387389.19 632154.88
 402734.12 -310994.51 617322.96
 473954.87 -229907.47 602087.48
 513120.92 -156045.48 593596.43
 523879.31 -97882.596 596631.77