# OOMMF OVF 2.0
#
# Segment count: 1
#
# Begin: Segment
# Begin: Header
#
# Title: Oxs_MinDriver::Magnetization
# Desc: Oxs vector field output
# Desc:  MIF source file: /home/ryan/Git/joommf/tools/omfvis/cube_example.mif
# Desc:  Iteration: 5507, State id: 11700
# Desc:  Stage: 37, Stage iteration: 33
# Desc:  Stage simulation time: 0 s
# Desc:  Total simulation time: -2 s
# meshunit: m
# meshtype: rectangular
# xbase: 2.5000000000000001e-09
# ybase: 2.5000000000000001e-09
# zbase: 2.5000000000000001e-09
# xnodes: 10
# ynodes: 10
# znodes: 10
# xstepsize: 5.0000000000000001e-09
# ystepsize: 5.0000000000000001e-09
# zstepsize: 5.0000000000000001e-09
# xmin: 0
# ymin: 0
# zmin: 0
# xmax: 4.9999999999999998e-08
# ymax: 4.9999999999999998e-08
# zmax: 4.9999999999999998e-08
# valuedim: 3
# valuelabels: Magnetization_x Magnetization_y Magnetization_z
# valueunits: A/m A/m A/m
#
# End: Header
#
# Begin: Data Text
 258119.35 258119.36 711862.91
 226554.97 264915.80 720064.21
 174996.25 271721.20 731808.65
 110343.96 276642.10 742491.32
 37694.697 279176.31 748758.77
 -37694.725 279176.31 748758.77
 -110343.99 276642.09 742491.32
 -174996.27 271721.19 731808.65
 -226554.99 264915.79 720064.21
 -258119.36 258119.35 711862.91
 264915.79 226554.99 720064.21
 235081.18 235081.20 727649.41
 183073.38 242895.44 739922.93
 116031.30 248471.22 751530.96
 39736.786 251349.74 758448.61
 -39736.812 251349.74 758448.61
 -116031.33 248471.21 751530.96
 -183073.40 242895.43 739922.93
 -235081.20 235081.18 727649.41
 -264915.80 226554.97 720064.21
 271721.19 174996.27 731808.65
 242895.43 183073.40 739922.93
 190544.19 190544.20 753250.17
 121409.18 195883.64 766087.08
 41693.060 198647.14 773822.33
 -41693.081 198647.14 773822.33
 -121409.20 195883.62 766087.08
 -190544.20 190544.19 753250.17
 -242895.44 183073.38 739922.93
 -271721.20 174996.25 731808.65
 276642.09 110343.99 742491.32
 248471.21 116031.33 751530.96
 195883.62 121409.20 766087.08
 125287.66 125287.67 780132.04
 43113.131 127302.95 788628.69
 -43113.145 127302.94 788628.69
 -125287.67 125287.66 780132.04
 -195883.64 121409.18 766087.08
 -248471.22 116031.30 751530.96
 -276642.10 110343.96 742491.32
 279176.31 37694.725 748758.77
 251349.74 39736.813 758448.61
 198647.14 41693.081 773822.33
 127302.94 43113.146 788628.69
 43853.118 43853.123 797592.51
 -43853.123 43853.118 797592.51
 -127302.95 43113.131 788628.69
 -198647.14 41693.059 773822.33
 -251349.74 39736.786 758448.61
 -279176.31 37694.697 748758.77
 279176.31 -37694.697 748758.77
 251349.74 -39736.786 758448.61
 198647.14 -41693.059 773822.33
 127302.95 -43113.131 788628.69
 43853.123 -43853.118 797592.51
 -43853.118 -43853.123 797592.51
 -127302.94 -43113.146 788628.69
 -198647.14 -41693.081 773822.33
 -251349.74 -39736.813 758448.61
 -279176.31 -37694.725 748758.77
 276642.10 -110343.96 742491.32
 248471.22 -116031.30 751530.96
 195883.64 -121409.18 766087.08
 125287.67 -125287.66 780132.04
 43113.146 -127302.94 788628.69
 -43113.131 -127302.95 788628.69
 -125287.66 -125287.67 780132.04
 -195883.62 -121409.20 766087.08
 -248471.21 -116031.33 751530.96
 -276642.09 -110343.99 742491.32
 271721.20 -174996.25 731808.65
 242895.44 -183073.38 739922.93
 190544.20 -190544.19 753250.17
 121409.20 -195883.62 766087.08
 41693.081 -198647.14 773822.33
 -41693.060 -198647.14 773822.33
 -121409.18 -195883.64 766087.08
 -190544.19 -190544.20 753250.17
 -242895.43 -183073.40 739922.93
 -271721.19 -174996.27 731808.65
 264915.80 -226554.97 720064.21
 235081.20 -235081.18 727649.41
 183073.40 -242895.43 739922.93
 116031.33 -248471.21 751530.96
 39736.812 -251349.74 758448.61
 -39736.786 -251349.74 758448.61
 -116031.30 -248471.22 751530.96
 -183073.38 -242895.44 739922.93
 -235081.18 -235081.20 727649.41
 -264915.79 -226554.99 720064.21
 258119.36 -258119.35 711862.91
 226554.99 -264915.79 720064.21
 174996.27 -271721.19 731808.65
 110343.99 -276642.09 742491.32
 37694.725 -279176.31 748758.77
 -37694.697 -279176.31 748758.77
 -110343.96 -276642.10 742491.32
 -174996.25 -271721.20 731808.65
 -226554.97 -264915.80 720064.21
 -258119.35 -258119.36 711862.91
 206135.53 206135.54 744994.15
 183720.31 204083.22 751396.62
 142948.62 204043.89 760218.25
 90274.451 204442.36 768149.62
 30829.927 204692.56 772755.12
 -30829.954 204692.56 772755.12
 -90274.474 204442.35 768149.62
 -142948.64 204043.88 760218.25
 -183720.32 204083.21 751396.62
 -206135.54 206135.53 744994.15
 204083.21 183720.32 751396.62
 184363.04 184363.06 756320.39
 144762.48 185599.73 764589.15
 91859.105 186655.42 772477.61
 31434.918 187210.08 777151.36
 -31434.941 187210.08 777151.36
 -91859.129 186655.41 772477.61
 -144762.50 185599.71 764589.15
 -184363.06 184363.04 756320.39
 -204083.22 183720.31 751396.62
 204043.88 142948.64 760218.25
 185599.71 144762.50 764589.15
 146720.14 146720.16 772623.06
 93521.119 148118.59 780586.12
 32072.873 148813.71 785382.59
 -32072.893 148813.71 785382.59
 -93521.136 148118.58 780586.12
 -146720.16 146720.14 772623.06
 -185599.72 144762.48 764589.15
 -204043.89 142948.61 760218.25
 204442.35 90274.474 768149.62
 186655.41 91859.129 772477.61
 148118.58 93521.136 780586.12
 94676.512 94676.525 788715.86
 32515.589 95241.820 793644.59
 -32515.601 95241.816 793644.59
 -94676.525 94676.512 788715.86
 -148118.59 93521.119 780586.12
 -186655.42 91859.105 772477.61
 -204442.36 90274.451 768149.62
 204692.56 30829.954 772755.12
 187210.08 31434.940 777151.36
 148813.71 32072.894 785382.59
 95241.816 32515.601 793644.59
 32731.488 32731.493 798659.69
 -32731.493 32731.489 798659.69
 -95241.820 32515.588 793644.59
 -148813.71 32072.874 785382.59
 -187210.08 31434.917 777151.36
 -204692.56 30829.928 772755.12
 204692.56 -30829.928 772755.12
 187210.08 -31434.917 777151.36
 148813.71 -32072.874 785382.59
 95241.820 -32515.588 793644.59
 32731.493 -32731.488 798659.69
 -32731.488 -32731.493 798659.69
 -95241.816 -32515.601 793644.59
 -148813.71 -32072.894 785382.59
 -187210.08 -31434.940 777151.36
 -204692.56 -30829.954 772755.12
 204442.36 -90274.451 768149.62
 186655.42 -91859.105 772477.61
 148118.59 -93521.119 780586.12
 94676.525 -94676.512 788715.86
 32515.601 -95241.816 793644.59
 -32515.589 -95241.820 793644.59
 -94676.512 -94676.525 788715.86
 -148118.58 -93521.135 780586.12
 -186655.41 -91859.129 772477.61
 -204442.35 -90274.474 768149.62
 204043.89 -142948.61 760218.25
 185599.72 -144762.48 764589.15
 146720.16 -146720.14 772623.06
 93521.136 -148118.58 780586.12
 32072.893 -148813.71 785382.59
 -32072.873 -148813.71 785382.59
 -93521.119 -148118.59 780586.12
 -146720.14 -146720.16 772623.06
 -185599.71 -144762.50 764589.15
 -204043.88 -142948.64 760218.25
 204083.22 -183720.31 751396.62
 184363.06 -184363.04 756320.39
 144762.50 -185599.71 764589.15
 91859.128 -186655.41 772477.61
 31434.941 -187210.08 777151.36
 -31434.918 -187210.08 777151.36
 -91859.105 -186655.42 772477.61
 -144762.48 -185599.73 764589.15
 -184363.04 -184363.06 756320.39
 -204083.21 -183720.32 751396.62
 206135.54 -206135.53 744994.15
 183720.32 -204083.21 751396.62
 142948.64 -204043.88 760218.25
 90274.474 -204442.35 768149.62
 30829.954 -204692.56 772755.12
 -30829.927 -204692.56 772755.12
 -90274.451 -204442.36 768149.62
 -142948.61 -204043.89 760218.25
 -183720.31 -204083.22 751396.62
 -206135.53 -206135.54 744994.15
 143103.04 143103.05 773978.71
 127490.36 136855.56 777828.23
 99222.642 132288.64 782722.55
 62608.210 129438.53 786972.60
 21361.256 128043.28 789397.63
 -21361.279 128043.27 789397.63
 -62608.233 129438.52 786972.60
 -99222.659 132288.63 782722.54
 -127490.38 136855.55 777828.23
 -143103.05 143103.04 773978.71
 136855.55 127490.37 777828.23
 123808.73 123808.74 780604.12
 97392.345 120569.40 784842.50
 61786.681 118407.68 788772.48
 21126.618 117325.11 791067.94
 -21126.640 117325.11 791067.94
 -61786.698 118407.68 788772.48
 -97392.365 120569.38 784842.50
 -123808.74 123808.73 780604.12
 -136855.56 127490.36 777828.23
 132288.63 99222.659 782722.54
 120569.38 97392.364 784842.50
 95562.364 95562.376 788502.17
 60920.259 94214.832 792093.61
 20876.677 93503.956 794242.52
 -20876.693 93503.952 794242.52
 -60920.277 94214.823 792093.61
 -95562.375 95562.365 788502.17
 -120569.40 97392.345 784842.50
 -132288.64 99222.642 782722.55
 129438.52 62608.233 786972.60
 118407.68 61786.698 788772.48
 94214.824 60920.277 792093.61
 60227.508 60227.517 795452.89
 20667.500 59841.983 797490.94
 -20667.511 59841.980 797490.94
 -60227.517 60227.508 795452.89
 -94214.834 60920.259 792093.61
 -118407.68 61786.680 788772.48
 -129438.53 62608.210 786972.60
 128043.27 21361.278 789397.63
 117325.11 21126.641 791067.94
 93503.952 20876.692 794242.52
 59841.980 20667.512 797490.94
 20547.199 20547.203 799472.09
 -20547.203 20547.199 799472.09
 -59841.983 20667.501 797490.94
 -93503.955 20876.676 794242.52
 -117325.11 21126.620 791067.94
 -128043.27 21361.255 789397.63
 128043.27 -21361.255 789397.63
 117325.11 -21126.619 791067.94
 93503.955 -20876.676 794242.52
 59841.983 -20667.500 797490.94
 20547.203 -20547.199 799472.09
 -20547.199 -20547.202 799472.09
 -59841.979 -20667.512 797490.94
 -93503.952 -20876.692 794242.52
 -117325.11 -21126.642 791067.94
 -128043.27 -21361.278 789397.63
 129438.53 -62608.210 786972.60
 118407.68 -61786.680 788772.48
 94214.834 -60920.259 792093.61
 60227.517 -60227.508 795452.89
 20667.511 -59841.979 797490.94
 -20667.500 -59841.983 797490.94
 -60227.508 -60227.517 795452.89
 -94214.824 -60920.277 792093.61
 -118407.68 -61786.697 788772.48
 -129438.52 -62608.233 786972.60
 132288.64 -99222.642 782722.55
 120569.40 -97392.345 784842.50
 95562.375 -95562.365 788502.17
 60920.276 -94214.823 792093.61
 20876.694 -93503.952 794242.52
 -20876.678 -93503.955 794242.52
 -60920.258 -94214.833 792093.61
 -95562.364 -95562.376 788502.17
 -120569.38 -97392.364 784842.50
 -132288.63 -99222.659 782722.54
 136855.56 -127490.36 777828.23
 123808.74 -123808.73 780604.12
 97392.365 -120569.38 784842.50
 61786.698 -118407.68 788772.48
 21126.640 -117325.11 791067.94
 -21126.618 -117325.11 791067.94
 -61786.681 -118407.68 788772.48
 -97392.345 -120569.40 784842.50
 -123808.73 -123808.74 780604.12
 -136855.55 -127490.37 777828.23
 143103.05 -143103.04 773978.71
 127490.37 -136855.55 777828.23
 99222.659 -132288.63 782722.54
 62608.233 -129438.52 786972.60
 21361.279 -128043.27 789397.63
 -21361.256 -128043.27 789397.63
 -62608.210 -129438.53 786972.60
 -99222.642 -132288.64 782722.55
 -127490.36 -136855.56 777828.23
 -143103.04 -143103.05 773978.71
 82104.928 82104.939 791528.62
 72780.579 76560.995 792995.21
 56448.343 71891.822 794761.07
 35539.999 68787.052 796244.47
 12111.732 67245.074 797076.79
 -12111.754 67245.073 797076.79
 -35540.018 68787.047 796244.47
 -56448.361 71891.814 794761.06
 -72780.592 76560.986 792995.21
 -82104.939 82104.928 791528.62
 76560.986 72780.592 792995.21
 69007.532 69007.545 794025.14
 54178.623 65332.762 795484.95
 34329.435 62766.240 796794.76
 11729.614 61471.626 797548.53
 -11729.632 61471.623 797548.53
 -34329.455 62766.234 796794.76
 -54178.636 65332.753 795484.95
 -69007.546 69007.531 794025.14
 -76560.995 72780.579 792995.21
 71891.814 56448.361 794761.06
 65332.752 54178.636 795484.95
 51751.419 51751.432 796645.20
 32983.799 49951.793 797757.41
 11300.304 49017.367 798416.93
 -11300.319 49017.365 798416.93
 -32983.811 49951.785 797757.41
 -51751.433 51751.418 796645.20
 -65332.760 54178.623 795484.95
 -71891.823 56448.343 794761.06
 68787.046 35540.017 796244.47
 62766.234 34329.456 796794.76
 49951.785 32983.811 797757.41
 31945.740 31945.749 798723.32
 10963.266 31393.453 799308.61
 -10963.275 31393.450 799308.61
 -31945.750 31945.740 798723.32
 -49951.791 32983.798 797757.41
 -62766.241 34329.437 796794.76
 -68787.051 35539.998 796244.47
 67245.073 12111.755 797076.79
 61471.623 11729.631 797548.53
 49017.366 11300.320 798416.93
 31393.450 10963.275 799308.61
 10781.669 10781.672 799854.68
 -10781.672 10781.669 799854.68
 -31393.452 10963.265 799308.61
 -49017.368 11300.306 798416.93
 -61471.625 11729.612 797548.53
 -67245.074 12111.733 797076.79
 67245.074 -12111.733 797076.79
 61471.625 -11729.613 797548.53
 49017.368 -11300.305 798416.93
 31393.453 -10963.266 799308.61
 10781.672 -10781.668 799854.68
 -10781.668 -10781.672 799854.68
 -31393.450 -10963.274 799308.61
 -49017.365 -11300.321 798416.93
 -61471.623 -11729.630 797548.53
 -67245.073 -12111.755 797076.79
 68787.051 -35539.998 796244.47
 62766.241 -34329.436 796794.76
 49951.792 -32983.799 797757.41
 31945.750 -31945.740 798723.32
 10963.275 -31393.450 799308.61
 -10963.266 -31393.453 799308.61
 -31945.740 -31945.750 798723.32
 -49951.785 -32983.810 797757.41
 -62766.234 -34329.456 796794.76
 -68787.046 -35540.017 796244.47
 71891.823 -56448.343 794761.07
 65332.761 -54178.624 795484.95
 51751.433 -51751.418 796645.20
 32983.811 -49951.786 797757.41
 11300.319 -49017.365 798416.93
 -11300.304 -49017.368 798416.93
 -32983.799 -49951.792 797757.41
 -51751.419 -51751.433 796645.20
 -65332.752 -54178.636 795484.95
 -71891.814 -56448.361 794761.06
 76560.995 -72780.579 792995.21
 69007.545 -69007.531 794025.14
 54178.637 -65332.753 795484.95
 34329.455 -62766.233 796794.76
 11729.632 -61471.623 797548.53
 -11729.614 -61471.625 797548.53
 -34329.435 -62766.240 796794.76
 -54178.623 -65332.761 795484.95
 -69007.531 -69007.545 794025.14
 -76560.986 -72780.592 792995.21
 82104.939 -82104.928 791528.62
 72780.592 -76560.986 792995.21
 56448.361 -71891.814 794761.06
 35540.018 -68787.047 796244.47
 12111.754 -67245.072 797076.79
 -12111.732 -67245.074 797076.79
 -35539.999 -68787.052 796244.47
 -56448.343 -71891.822 794761.07
 -72780.579 -76560.995 792995.21
 -82104.928 -82104.939 791528.62
 26525.356 26525.366 799120.02
 23428.194 24409.450 799284.24
 18120.222 22547.158 799476.88
 11389.755 21285.100 799635.68
 3878.5573 20655.527 799723.89
 -3878.5775 20655.525 799723.89
 -11389.774 21285.096 799635.68
 -18120.238 22547.151 799476.88
 -23428.207 24409.440 799284.24
 -26525.366 26525.356 799120.02
 24409.440 23428.207 799284.24
 21937.912 21937.922 799398.18
 17191.024 20440.464 799554.04
 10881.966 19380.019 799691.19
 3716.4709 18843.683 799769.41
 -3716.4891 18843.682 799769.41
 -10881.982 19380.013 799691.19
 -17191.040 20440.455 799554.04
 -21937.922 21937.911 799398.18
 -24409.450 23428.194 799284.24
 22547.151 18120.238 799476.88
 20440.455 17191.040 799554.04
 16174.954 16174.965 799672.90
 10306.444 15417.228 799785.03
 3530.7827 15024.476 799851.11
 -3530.7961 15024.473 799851.11
 -10306.458 15417.221 799785.03
 -16174.964 16174.954 799672.90
 -20440.465 17191.025 799554.04
 -22547.158 18120.221 799476.88
 21285.096 11389.775 799635.68
 19380.013 10881.981 799691.19
 15417.221 10306.458 799785.03
 9862.6619 9862.6702 799878.40
 3385.5006 9627.9653 799934.90
 -3385.5096 9627.9627 799934.90
 -9862.6694 9862.6619 799878.40
 -15417.229 10306.445 799785.03
 -19380.018 10881.965 799691.19
 -21285.101 11389.756 799635.68
 20655.525 3878.5768 799723.89
 18843.682 3716.4902 799769.41
 15024.473 3530.7957 799851.11
 9627.9631 3385.5089 799934.90
 3307.8731 3307.8767 799986.32
 -3307.8760 3307.8737 799986.32
 -9627.9661 3385.5006 799934.90
 -15024.476 3530.7811 799851.11
 -18843.684 3716.4732 799769.41
 -20655.527 3878.5562 799723.89
 20655.527 -3878.5568 799723.89
 18843.683 -3716.4720 799769.41
 15024.476 -3530.7824 799851.11
 9627.9653 -3385.4999 799934.90
 3307.8770 -3307.8739 799986.32
 -3307.8740 -3307.8766 799986.32
 -9627.9625 -3385.5096 799934.90
 -15024.473 -3530.7947 799851.11
 -18843.682 -3716.4913 799769.41
 -20655.525 -3878.5764 799723.89
 21285.101 -11389.755 799635.68
 19380.018 -10881.966 799691.19
 15417.228 -10306.444 799785.03
 9862.6701 -9862.6628 799878.40
 3385.5090 -9627.9622 799934.90
 -3385.5001 -9627.9656 799934.90
 -9862.6621 -9862.6697 799878.40
 -15417.221 -10306.459 799785.02
 -19380.013 -10881.981 799691.19
 -21285.096 -11389.775 799635.68
 22547.158 -18120.222 799476.88
 20440.464 -17191.024 799554.04
 16174.965 -16174.955 799672.90
 10306.457 -15417.220 799785.03
 3530.7963 -15024.474 799851.11
 -3530.7827 -15024.476 799851.11
 -10306.444 -15417.228 799785.03
 -16174.954 -16174.964 799672.90
 -20440.455 -17191.040 799554.04
 -22547.151 -18120.237 799476.88
 24409.450 -23428.194 799284.24
 21937.923 -21937.912 799398.18
 17191.039 -20440.454 799554.04
 10881.982 -19380.013 799691.19
 3716.4892 -18843.681 799769.41
 -3716.4711 -18843.683 799769.41
 -10881.966 -19380.019 799691.19
 -17191.024 -20440.464 799554.04
 -21937.912 -21937.923 799398.18
 -24409.440 -23428.207 799284.24
 26525.366 -26525.356 799120.02
 23428.207 -24409.440 799284.24
 18120.238 -22547.151 799476.88
 11389.774 -21285.096 799635.68
 3878.5774 -20655.526 799723.89
 -3878.5572 -20655.527 799723.89
 -11389.755 -21285.100 799635.68
 -18120.222 -22547.158 799476.88
 -23428.194 -24409.450 799284.24
 -26525.356 -26525.366 799120.02
 -26525.366 -26525.356 799120.02
 -23428.207 -24409.440 799284.24
 -18120.238 -22547.151 799476.88
 -11389.774 -21285.096 799635.68
 -3878.5772 -20655.526 799723.89
 3878.5570 -20655.527 799723.89
 11389.755 -21285.101 799635.68
 18120.222 -22547.158 799476.88
 23428.194 -24409.450 799284.24
 26525.356 -26525.366 799120.02
 -24409.450 -23428.194 799284.24
 -21937.923 -21937.911 799398.18
 -17191.039 -20440.455 799554.04
 -10881.982 -19380.013 799691.19
 -3716.4897 -18843.681 799769.41
 3716.4717 -18843.684 799769.41
 10881.966 -19380.018 799691.19
 17191.024 -20440.465 799554.04
 21937.912 -21937.922 799398.18
 24409.440 -23428.208 799284.24
 -22547.158 -18120.221 799476.88
 -20440.464 -17191.025 799554.04
 -16174.965 -16174.954 799672.90
 -10306.458 -15417.221 799785.03
 -3530.7955 -15024.474 799851.11
 3530.7818 -15024.476 799851.11
 10306.445 -15417.229 799785.03
 16174.954 -16174.963 799672.90
 20440.455 -17191.041 799554.04
 22547.151 -18120.237 799476.88
 -21285.101 -11389.755 799635.68
 -19380.018 -10881.965 799691.19
 -15417.228 -10306.445 799785.03
 -9862.6694 -9862.6620 799878.40
 -3385.5100 -9627.9627 799934.90
 3385.5014 -9627.9655 799934.90
 9862.6612 -9862.6696 799878.40
 15417.221 -10306.459 799785.02
 19380.013 -10881.980 799691.19
 21285.096 -11389.775 799635.68
 -20655.527 -3878.5567 799723.89
 -18843.684 -3716.4721 799769.41
 -15024.476 -3530.7822 799851.11
 -9627.9659 -3385.5001 799934.90
 -3307.8759 -3307.8737 799986.32
 3307.8728 -3307.8768 799986.32
 9627.9634 -3385.5094 799934.90
 15024.473 -3530.7947 799851.11
 18843.682 -3716.4912 799769.41
 20655.526 -3878.5764 799723.89
 -20655.526 3878.5769 799723.89
 -18843.681 3716.4900 799769.41
 -15024.474 3530.7960 799851.11
 -9627.9627 3385.5087 799934.90
 -3307.8737 3307.8769 799986.32
 3307.8767 3307.8736 799986.32
 9627.9654 3385.5007 799934.90
 15024.476 3530.7812 799851.11
 18843.684 3716.4731 799769.41
 20655.527 3878.5563 799723.89
 -21285.096 11389.775 799635.68
 -19380.013 10881.981 799691.19
 -15417.221 10306.458 799785.03
 -9862.6618 9862.6704 799878.40
 -3385.5008 9627.9651 799934.90
 3385.5096 9627.9629 799934.90
 9862.6696 9862.6617 799878.40
 15417.228 10306.445 799785.03
 19380.018 10881.965 799691.19
 21285.101 11389.756 799635.68
 -22547.151 18120.237 799476.88
 -20440.454 17191.040 799554.04
 -16174.954 16174.964 799672.90
 -10306.444 15417.228 799785.03
 -3530.7819 15024.476 799851.11
 3530.7954 15024.473 799851.11
 10306.458 15417.221 799785.03
 16174.965 16174.953 799672.90
 20440.464 17191.025 799554.04
 22547.158 18120.221 799476.88
 -24409.440 23428.208 799284.24
 -21937.912 21937.922 799398.18
 -17191.024 20440.465 799554.04
 -10881.966 19380.018 799691.19
 -3716.4718 18843.683 799769.41
 3716.4899 18843.682 799769.41
 10881.982 19380.013 799691.19
 17191.039 20440.455 799554.04
 21937.923 21937.911 799398.18
 24409.450 23428.194 799284.24
 -26525.356 26525.366 799120.02
 -23428.194 24409.450 799284.24
 -18120.222 22547.158 799476.88
 -11389.755 21285.101 799635.68
 -3878.5570 20655.527 799723.89
 3878.5771 20655.526 799723.89
 11389.774 21285.096 799635.68
 18120.238 22547.151 799476.88
 23428.207 24409.440 799284.24
 26525.366 26525.356 799120.02
 -82104.939 -82104.928 791528.62
 -72780.592 -76560.986 792995.21
 -56448.361 -71891.815 794761.06
 -35540.018 -68787.046 796244.47
 -12111.755 -67245.072 797076.79
 12111.733 -67245.074 797076.79
 35539.998 -68787.051 796244.47
 56448.343 -71891.823 794761.06
 72780.579 -76560.995 792995.21
 82104.928 -82104.939 791528.62
 -76560.995 -72780.578 792995.21
 -69007.545 -69007.532 794025.14
 -54178.636 -65332.752 795484.95
 -34329.456 -62766.234 796794.76
 -11729.631 -61471.623 797548.53
 11729.612 -61471.625 797548.53
 34329.436 -62766.242 796794.76
 54178.623 -65332.759 795484.95
 69007.531 -69007.547 794025.14
 76560.986 -72780.591 792995.21
 -71891.822 -56448.343 794761.06
 -65332.761 -54178.622 795484.95
 -51751.433 -51751.420 796645.20
 -32983.810 -49951.784 797757.41
 -11300.321 -49017.365 798416.93
 11300.306 -49017.368 798416.93
 32983.797 -49951.791 797757.41
 51751.419 -51751.434 796645.20
 65332.753 -54178.635 795484.95
 71891.814 -56448.361 794761.06
 -68787.051 -35539.998 796244.47
 -62766.241 -34329.437 796794.76
 -49951.791 -32983.798 797757.41
 -31945.751 -31945.741 798723.32
 -10963.273 -31393.450 799308.61
 10963.264 -31393.453 799308.61
 31945.741 -31945.751 798723.32
 49951.785 -32983.809 797757.41
 62766.234 -34329.457 796794.76
 68787.047 -35540.017 796244.47
 -67245.074 -12111.733 797076.79
 -61471.625 -11729.613 797548.53
 -49017.368 -11300.305 798416.93
 -31393.452 -10963.266 799308.61
 -10781.673 -10781.669 799854.68
 10781.670 -10781.672 799854.68
 31393.449 -10963.274 799308.61
 49017.366 -11300.321 798416.93
 61471.623 -11729.630 797548.53
 67245.072 -12111.755 797076.79
 -67245.072 12111.755 797076.79
 -61471.623 11729.631 797548.53
 -49017.365 11300.320 798416.93
 -31393.450 10963.275 799308.61
 -10781.669 10781.672 799854.68
 10781.672 10781.669 799854.68
 31393.453 10963.265 799308.61
 49017.368 11300.306 798416.93
 61471.625 11729.612 797548.53
 67245.074 12111.733 797076.79
 -68787.047 35540.017 796244.47
 -62766.234 34329.456 796794.76
 -49951.785 32983.810 797757.41
 -31945.741 31945.750 798723.32
 -10963.264 31393.453 799308.61
 10963.273 31393.449 799308.61
 31945.751 31945.741 798723.32
 49951.791 32983.797 797757.41
 62766.241 34329.437 796794.76
 68787.051 35539.998 796244.47
 -71891.814 56448.361 794761.06
 -65332.753 54178.635 795484.95
 -51751.419 51751.434 796645.20
 -32983.798 49951.791 797757.41
 -11300.306 49017.368 798416.93
 11300.321 49017.366 798416.93
 32983.810 49951.784 797757.41
 51751.433 51751.420 796645.20
 65332.761 54178.622 795484.95
 71891.822 56448.343 794761.06
 -76560.986 72780.591 792995.21
 -69007.531 69007.547 794025.14
 -54178.624 65332.760 795484.95
 -34329.436 62766.242 796794.76
 -11729.612 61471.625 797548.53
 11729.631 61471.623 797548.53
 34329.456 62766.235 796794.76
 54178.637 65332.752 795484.95
 69007.545 69007.532 794025.14
 76560.995 72780.578 792995.21
 -82104.928 82104.939 791528.62
 -72780.579 76560.995 792995.21
 -56448.343 71891.823 794761.06
 -35539.998 68787.051 796244.47
 -12111.733 67245.074 797076.79
 12111.755 67245.073 797076.79
 35540.018 68787.046 796244.47
 56448.361 71891.815 794761.06
 72780.592 76560.986 792995.21
 82104.939 82104.928 791528.62
 -143103.05 -143103.04 773978.71
 -127490.37 -136855.55 777828.23
 -99222.659 -132288.63 782722.54
 -62608.233 -129438.52 786972.60
 -21361.278 -128043.27 789397.63
 21361.255 -128043.27 789397.63
 62608.210 -129438.53 786972.60
 99222.642 -132288.64 782722.55
 127490.36 -136855.56 777828.23
 143103.04 -143103.05 773978.71
 -136855.56 -127490.36 777828.23
 -123808.74 -123808.73 780604.12
 -97392.365 -120569.38 784842.50
 -61786.697 -118407.68 788772.48
 -21126.642 -117325.11 791067.94
 21126.620 -117325.11 791067.94
 61786.680 -118407.68 788772.48
 97392.345 -120569.40 784842.50
 123808.73 -123808.74 780604.12
 136855.55 -127490.38 777828.23
 -132288.64 -99222.641 782722.55
 -120569.40 -97392.346 784842.50
 -95562.375 -95562.363 788502.17
 -60920.278 -94214.824 792093.61
 -20876.691 -93503.952 794242.52
 20876.675 -93503.954 794242.52
 60920.260 -94214.834 792093.61
 95562.364 -95562.374 788502.17
 120569.38 -97392.366 784842.50
 132288.63 -99222.659 782722.54
 -129438.53 -62608.210 786972.60
 -118407.68 -61786.679 788772.48
 -94214.834 -60920.260 792093.61
 -60227.516 -60227.507 795452.89
 -20667.513 -59841.979 797490.93
 20667.502 -59841.983 797490.93
 60227.507 -60227.516 795452.89
 94214.824 -60920.278 792093.61
 118407.68 -61786.697 788772.48
 129438.52 -62608.233 786972.60
 -128043.27 -21361.255 789397.63
 -117325.11 -21126.619 791067.94
 -93503.955 -20876.676 794242.52
 -59841.984 -20667.500 797490.94
 -20547.202 -20547.199 799472.09
 20547.198 -20547.202 799472.09
 59841.980 -20667.512 797490.93
 93503.952 -20876.692 794242.52
 117325.11 -21126.642 791067.94
 128043.27 -21361.278 789397.63
 -128043.27 21361.278 789397.63
 -117325.11 21126.641 791067.94
 -93503.952 20876.692 794242.52
 -59841.980 20667.512 797490.93
 -20547.198 20547.203 799472.09
 20547.202 20547.198 799472.09
 59841.983 20667.501 797490.94
 93503.955 20876.676 794242.52
 117325.11 21126.620 791067.94
 128043.27 21361.255 789397.63
 -129438.52 62608.233 786972.60
 -118407.68 61786.697 788772.48
 -94214.824 60920.278 792093.61
 -60227.507 60227.517 795452.89
 -20667.502 59841.983 797490.94
 20667.513 59841.980 797490.93
 60227.516 60227.507 795452.89
 94214.834 60920.260 792093.61
 118407.68 61786.679 788772.48
 129438.53 62608.211 786972.60
 -132288.63 99222.659 782722.54
 -120569.38 97392.366 784842.50
 -95562.364 95562.374 788502.17
 -60920.260 94214.834 792093.61
 -20876.675 93503.955 794242.52
 20876.691 93503.951 794242.52
 60920.277 94214.825 792093.61
 95562.375 95562.363 788502.17
 120569.40 97392.346 784842.50
 132288.64 99222.641 782722.55
 -136855.55 127490.38 777828.23
 -123808.73 123808.74 780604.12
 -97392.345 120569.40 784842.50
 -61786.680 118407.68 788772.48
 -21126.620 117325.11 791067.94
 21126.642 117325.11 791067.94
 61786.697 118407.68 788772.48
 97392.364 120569.38 784842.50
 123808.74 123808.73 780604.12
 136855.56 127490.36 777828.23
 -143103.04 143103.05 773978.71
 -127490.36 136855.56 777828.23
 -99222.642 132288.64 782722.55
 -62608.210 129438.53 786972.60
 -21361.255 128043.27 789397.63
 21361.278 128043.27 789397.63
 62608.233 129438.52 786972.60
 99222.659 132288.63 782722.54
 127490.37 136855.55 777828.23
 143103.05 143103.04 773978.71
 -206135.54 -206135.53 744994.15
 -183720.32 -204083.21 751396.62
 -142948.64 -204043.88 760218.25
 -90274.474 -204442.35 768149.62
 -30829.954 -204692.56 772755.12
 30829.928 -204692.56 772755.12
 90274.451 -204442.36 768149.62
 142948.61 -204043.89 760218.25
 183720.31 -204083.22 751396.62
 206135.53 -206135.54 744994.15
 -204083.22 -183720.30 751396.62
 -184363.06 -184363.04 756320.39
 -144762.50 -185599.71 764589.15
 -91859.129 -186655.41 772477.61
 -31434.940 -187210.08 777151.36
 31434.916 -187210.08 777151.36
 91859.106 -186655.42 772477.61
 144762.48 -185599.72 764589.15
 184363.04 -184363.06 756320.39
 204083.21 -183720.32 751396.62
 -204043.89 -142948.62 760218.25
 -185599.72 -144762.48 764589.15
 -146720.16 -146720.14 772623.06
 -93521.135 -148118.58 780586.12
 -32072.895 -148813.71 785382.59
 32072.875 -148813.71 785382.59
 93521.118 -148118.59 780586.12
 146720.14 -146720.16 772623.06
 185599.71 -144762.50 764589.15
 204043.88 -142948.64 760218.25
 -204442.36 -90274.451 768149.62
 -186655.42 -91859.106 772477.61
 -148118.59 -93521.118 780586.12
 -94676.526 -94676.513 788715.86
 -32515.600 -95241.816 793644.59
 32515.587 -95241.819 793644.59
 94676.513 -94676.526 788715.86
 148118.58 -93521.135 780586.12
 186655.41 -91859.129 772477.61
 204442.35 -90274.474 768149.62
 -204692.56 -30829.928 772755.12
 -187210.08 -31434.917 777151.36
 -148813.71 -32072.874 785382.59
 -95241.820 -32515.588 793644.59
 -32731.494 -32731.488 798659.69
 32731.489 -32731.493 798659.69
 95241.815 -32515.601 793644.59
 148813.71 -32072.894 785382.59
 187210.08 -31434.940 777151.36
 204692.56 -30829.954 772755.12
 -204692.56 30829.954 772755.12
 -187210.08 31434.940 777151.36
 -148813.71 32072.894 785382.59
 -95241.815 32515.601 793644.59
 -32731.489 32731.493 798659.69
 32731.493 32731.489 798659.69
 95241.820 32515.588 793644.59
 148813.71 32072.874 785382.59
 187210.08 31434.917 777151.36
 204692.56 30829.928 772755.12
 -204442.35 90274.474 768149.62
 -186655.41 91859.130 772477.61
 -148118.58 93521.135 780586.12
 -94676.513 94676.525 788715.86
 -32515.588 95241.820 793644.59
 32515.600 95241.815 793644.59
 94676.526 94676.513 788715.86
 148118.59 93521.118 780586.12
 186655.42 91859.106 772477.61
 204442.36 90274.451 768149.62
 -204043.88 142948.64 760218.25
 -185599.71 144762.50 764589.15
 -146720.14 146720.16 772623.06
 -93521.118 148118.59 780586.12
 -32072.875 148813.71 785382.59
 32072.895 148813.71 785382.59
 93521.135 148118.58 780586.12
 146720.16 146720.14 772623.06
 185599.73 144762.48 764589.15
 204043.89 142948.62 760218.25
 -204083.21 183720.32 751396.62
 -184363.04 184363.06 756320.39
 -144762.48 185599.72 764589.15
 -91859.105 186655.42 772477.61
 -31434.917 187210.08 777151.36
 31434.940 187210.08 777151.36
 91859.129 186655.41 772477.61
 144762.50 185599.71 764589.15
 184363.06 184363.04 756320.39
 204083.22 183720.30 751396.62
 -206135.53 206135.54 744994.15
 -183720.31 204083.22 751396.62
 -142948.61 204043.89 760218.25
 -90274.451 204442.36 768149.62
 -30829.928 204692.56 772755.12
 30829.954 204692.56 772755.12
 90274.474 204442.35 768149.62
 142948.64 204043.88 760218.25
 183720.32 204083.21 751396.62
 206135.54 206135.53 744994.15
 -258119.36 -258119.35 711862.91
 -226554.99 -264915.79 720064.21
 -174996.27 -271721.19 731808.65
 -110343.99 -276642.09 742491.32
 -37694.725 -279176.31 748758.77
 37694.697 -279176.31 748758.77
 110343.96 -276642.10 742491.32
 174996.25 -271721.20 731808.65