# OOMMF OVF 2.0
#
# Segment count: 1
#
# Begin: Segment
# Begin: Header
#
# Title: Oxs_MinDriver::Magnetization
# Desc: Oxs vector field output
# Desc:  MIF source file: /home/ryan/Git/joommf/tools/omfvis/cube_example.mif
# Desc:  Iteration: 5334, State id: 11344
# Desc:  Stage: 32, Stage iteration: 33
# Desc:  Stage simulation time: 0 s
# Desc:  Total simulation time: -2 s
# meshunit: m
# meshtype: rectangular
# xbase: 2.5000000000000001e-09
# ybase: 2.5000000000000001e-09
# zbase: 2.5000000000000001e-09
# xnodes: 10
# ynodes: 10
# znodes: 10
# xstepsize: 5.0000000000000001e-09
# ystepsize: 5.0000000000000001e-09
# zstepsize: 5.0000000000000001e-09
# xmin: 0
# ymin: 0
# zmin: 0
# xmax: 4.9999999999999998e-08
# ymax: 4.9999999999999998e-08
# zmax: 4.9999999999999998e-08
# valuedim: 3
# valuelabels: Magnetization_x Magnetization_y Magnetization_z
# valueunits: A/m A/m A/m
#
# End: Header
#
# Begin: Data Text
 267675.02 267675.09 704769.56
 235952.69 274263.43 713516.57
 183083.76 280984.40 726311.30
 115855.78 285920.31 738123.98
 39654.716 288491.27 745117.63
 -39654.852 288491.26 745117.63
 -115855.90 285920.27 738123.98
 -183083.87 280984.35 726311.29
 -235952.77 274263.36 713516.57
 -267675.09 267675.02 704769.56
 274263.36 235952.78 713516.57
 244485.42 244485.50 721424.79
 191314.13 252363.56 734650.62
 121711.43 258056.68 747390.85
 41767.708 261027.82 755062.87
 -41767.837 261027.81 755062.87
 -121711.55 258056.64 747390.84
 -191314.23 252363.49 734650.62
 -244485.50 244485.42 721424.79
 -274263.42 235952.69 713516.57
 280984.35 183083.87 726311.29
 252363.50 191314.23 734650.62
 198968.94 198969.03 748880.96
 127279.40 204500.54 762875.80
 43803.617 207392.56 771407.53
 -43803.723 207392.54 771407.52
 -127279.49 204500.48 762875.80
 -198969.03 198968.94 748880.96
 -252363.56 191314.13 734650.62
 -280984.40 183083.76 726311.30
 285920.27 115855.90 738123.98
 258056.64 121711.55 747390.84
 204500.48 127279.49 762875.80
 131337.02 131337.09 778139.55
 45296.742 133465.97 787486.53
 -45296.812 133465.94 787486.53
 -131337.09 131337.02 778139.55
 -204500.54 127279.39 762875.80
 -258056.68 121711.43 747390.85
 -285920.31 115855.78 738123.98
 288491.26 39654.853 745117.63
 261027.81 41767.837 755062.87
 207392.54 43803.725 771407.52
 133465.95 45296.813 787486.53
 46082.268 46082.291 797341.11
 -46082.290 46082.266 797341.11
 -133465.97 45296.738 787486.53
 -207392.56 43803.614 771407.53
 -261027.82 41767.705 755062.87
 -288491.27 39654.714 745117.64
 288491.27 -39654.715 745117.63
 261027.82 -41767.706 755062.87
 207392.56 -43803.616 771407.52
 133465.97 -45296.740 787486.53
 46082.295 -46082.267 797341.11
 -46082.264 -46082.293 797341.11
 -133465.94 -45296.815 787486.53
 -207392.54 -43803.727 771407.52
 -261027.80 -41767.839 755062.87
 -288491.26 -39654.854 745117.63
 285920.31 -115855.78 738123.98
 258056.68 -121711.43 747390.85
 204500.54 -127279.39 762875.80
 131337.09 -131337.02 778139.55
 45296.816 -133465.95 787486.53
 -45296.737 -133465.97 787486.53
 -131337.02 -131337.09 778139.55
 -204500.48 -127279.50 762875.80
 -258056.64 -121711.55 747390.84
 -285920.27 -115855.90 738123.98
 280984.40 -183083.76 726311.30
 252363.56 -191314.13 734650.62
 198969.03 -198968.94 748880.95
 127279.50 -204500.48 762875.80
 43803.727 -207392.54 771407.52
 -43803.613 -207392.56 771407.53
 -127279.39 -204500.54 762875.80
 -198968.94 -198969.03 748880.96
 -252363.49 -191314.23 734650.62
 -280984.35 -183083.87 726311.29
 274263.43 -235952.69 713516.57
 244485.50 -244485.42 721424.78
 191314.23 -252363.50 734650.62
 121711.55 -258056.64 747390.84
 41767.840 -261027.81 755062.87
 -41767.705 -261027.82 755062.87
 -121711.43 -258056.68 747390.85
 -191314.13 -252363.56 734650.62
 -244485.42 -244485.50 721424.79
 -274263.36 -235952.78 713516.57
 267675.09 -267675.02 704769.56
 235952.78 -274263.36 713516.57
 183083.87 -280984.35 726311.29
 115855.91 -285920.27 738123.98
 39654.855 -288491.26 745117.63
 -39654.713 -288491.27 745117.63
 -115855.78 -285920.31 738123.98
 -183083.76 -280984.40 726311.30
 -235952.69 -274263.43 713516.57
 -267675.02 -267675.09 704769.56
 215133.02 215133.09 739888.87
 192214.14 212572.15 746904.82
 150007.72 212081.79 756649.85
 94964.139 212163.32 765485.82
 32474.873 212250.41 770645.93
 -32475.002 212250.39 770645.93
 -94964.258 212163.28 765485.81
 -150007.82 212081.74 756649.84
 -192214.22 212572.09 746904.82
 -215133.08 215133.02 739888.87
 212572.09 192214.22 746904.81
 192519.50 192519.58 752244.94
 151636.84 193428.23 761309.26
 96461.709 194250.84 770040.10
 33054.666 194686.58 775244.81
 -33054.784 194686.57 775244.81
 -96461.817 194250.80 770040.09
 -151636.93 193428.17 761309.26
 -192519.57 192519.50 752244.94
 -212572.15 192214.14 746904.82
 212081.75 150007.82 756649.84
 193428.17 151636.93 761309.26
 153403.62 153403.70 770022.49
 98033.139 154661.47 778761.41
 33666.877 155284.04 784062.12
 -33666.973 155284.02 784062.12
 -98033.227 154661.42 778761.41
 -153403.70 153403.62 770022.49
 -193428.23 151636.83 761309.26
 -212081.79 150007.72 756649.85
 212163.29 94964.259 765485.81
 194250.80 96461.817 770040.09
 154661.42 98033.229 778761.41
 99119.474 99119.533 787623.42
 34089.576 99648.438 793037.26
 -34089.637 99648.420 793037.26
 -99119.532 99119.472 787623.42
 -154661.47 98033.137 778761.41
 -194250.84 96461.708 770040.10
 -212163.32 94964.137 765485.82
 212250.39 32475.002 770645.93
 194686.57 33054.786 775244.81
 155284.02 33666.972 784062.12
 99648.421 34089.639 793037.26
 34294.766 34294.787 798528.48
 -34294.786 34294.763 798528.48
 -99648.437 34089.575 793037.26
 -155284.04 33666.874 784062.12
 -194686.58 33054.664 775244.82
 -212250.40 32474.871 770645.93
 212250.41 -32474.872 770645.93
 194686.59 -33054.667 775244.81
 155284.04 -33666.875 784062.12
 99648.441 -34089.576 793037.26
 34294.789 -34294.765 798528.48
 -34294.762 -34294.788 798528.48
 -99648.419 -34089.641 793037.26
 -155284.02 -33666.974 784062.12
 -194686.57 -33054.786 775244.81
 -212250.39 -32475.003 770645.93
 212163.32 -94964.139 765485.82
 194250.84 -96461.707 770040.10
 154661.47 -98033.140 778761.41
 99119.535 -99119.473 787623.42
 34089.641 -99648.421 793037.26
 -34089.573 -99648.440 793037.26
 -99119.470 -99119.534 787623.42
 -154661.42 -98033.229 778761.41
 -194250.80 -96461.820 770040.09
 -212163.28 -94964.259 765485.81
 212081.79 -150007.72 756649.85
 193428.24 -151636.84 761309.26
 153403.70 -153403.62 770022.49
 98033.230 -154661.42 778761.41
 33666.976 -155284.02 784062.12
 -33666.874 -155284.04 784062.12
 -98033.136 -154661.47 778761.41
 -153403.62 -153403.70 770022.49
 -193428.17 -151636.93 761309.26
 -212081.74 -150007.82 756649.84
 212572.15 -192214.14 746904.82
 192519.58 -192519.50 752244.94
 151636.93 -193428.17 761309.26
 96461.821 -194250.80 770040.09
 33054.786 -194686.57 775244.81
 -33054.663 -194686.59 775244.81
 -96461.707 -194250.84 770040.10
 -151636.83 -193428.23 761309.26
 -192519.50 -192519.58 752244.94
 -212572.09 -192214.22 746904.82
 215133.09 -215133.02 739888.87
 192214.22 -212572.09 746904.81
 150007.82 -212081.75 756649.84
 94964.260 -212163.29 765485.81
 32475.004 -212250.39 770645.93
 -32474.871 -212250.41 770645.93
 -94964.137 -212163.32 765485.82
 -150007.72 -212081.79 756649.85
 -192214.14 -212572.15 746904.82
 -215133.02 -215133.09 739888.87
 150244.43 150244.49 771267.27
 133995.64 143337.43 775564.02
 104432.75 138101.01 781039.00
 65973.425 134740.25 785806.96
 22523.926 133070.56 788533.38
 -22524.043 133070.55 788533.38
 -65973.534 134740.22 785806.95
 -104432.84 138100.96 781038.99
 -133995.72 143337.38 775564.02
 -150244.49 150244.43 771267.27
 143337.38 133995.72 775564.02
 129808.46 129808.53 778652.37
 102256.55 126014.21 783367.10
 64948.012 123421.39 787749.27
 22221.424 122106.43 790314.01
 -22221.529 122106.41 790314.01
 -64948.110 123421.35 787749.27
 -102256.63 126014.15 783367.10
 -129808.53 129808.46 778652.37
 -143337.43 133995.64 775564.02
 138100.97 104432.85 781038.99
 126014.15 102256.63 783367.10
 100029.23 100029.29 787393.35
 63844.682 98364.804 791358.47
 21892.685 97481.119 793736.82
 -21892.768 97481.108 793736.82
 -63844.760 98364.757 791358.47
 -100029.29 100029.22 787393.35
 -126014.21 102256.55 783367.10
 -138101.01 104432.75 781039.00
 134740.22 65973.534 785806.95
 123421.36 64948.112 787749.27
 98364.758 63844.759 791358.47
 62959.788 62959.837 795029.64
 21619.179 62468.443 797264.26
 -21619.232 62468.422 797264.26
 -62959.835 62959.787 795029.64
 -98364.802 63844.681 791358.47
 -123421.39 64948.011 787749.27
 -134740.25 65973.424 785806.96
 133070.55 22524.045 788533.38
 122106.41 22221.527 790314.01
 97481.109 21892.771 793736.82
 62468.424 21619.232 797264.26
 21463.265 21463.282 799423.95
 -21463.281 21463.264 799423.95
 -62468.442 21619.176 797264.26
 -97481.119 21892.685 793736.82
 -122106.43 22221.421 790314.01
 -133070.56 22523.925 788533.38
 133070.56 -22523.926 788533.38
 122106.43 -22221.421 790314.01
 97481.122 -21892.687 793736.82
 62468.444 -21619.177 797264.26
 21463.283 -21463.265 799423.95
 -21463.263 -21463.283 799423.95
 -62468.421 -21619.233 797264.26
 -97481.108 -21892.771 793736.82
 -122106.41 -22221.528 790314.01
 -133070.55 -22524.045 788533.38
 134740.25 -65973.424 785806.96
 123421.39 -64948.013 787749.27
 98364.804 -63844.681 791358.47
 62959.838 -62959.788 795029.64
 21619.234 -62468.423 797264.26
 -21619.176 -62468.443 797264.26
 -62959.787 -62959.837 795029.64
 -98364.755 -63844.761 791358.47
 -123421.36 -64948.111 787749.27
 -134740.22 -65973.535 785806.95
 138101.01 -104432.75 781039.00
 126014.21 -102256.55 783367.10
 100029.29 -100029.23 787393.35
 63844.762 -98364.758 791358.47
 21892.771 -97481.108 793736.82
 -21892.683 -97481.121 793736.82
 -63844.680 -98364.805 791358.47
 -100029.22 -100029.29 787393.35
 -126014.15 -102256.63 783367.10
 -138100.96 -104432.85 781038.99
 143337.43 -133995.64 775564.02
 129808.53 -129808.46 778652.37
 102256.63 -126014.15 783367.10
 64948.112 -123421.36 787749.27
 22221.530 -122106.41 790314.01
 -22221.422 -122106.43 790314.01
 -64948.010 -123421.39 787749.27
 -102256.55 -126014.21 783367.10
 -129808.46 -129808.53 778652.37
 -143337.38 -133995.72 775564.02
 150244.49 -150244.43 771267.27
 133995.72 -143337.38 775564.02
 104432.85 -138100.96 781038.99
 65973.536 -134740.22 785806.95
 22524.045 -133070.55 788533.38
 -22523.924 -133070.56 788533.38
 -65973.424 -134740.25 785806.96
 -104432.75 -138101.01 781039.00
 -133995.64 -143337.43 775564.02
 -150244.43 -150244.49 771267.27
 86548.659 86548.713 790581.21
 76730.693 80471.994 792235.23
 59527.714 75244.029 794225.90
 37487.783 71710.331 795897.16
 12777.178 69938.539 796834.58
 -12777.285 69938.529 796834.58
 -37487.883 71710.307 795897.16
 -59527.800 75243.989 794225.90
 -76730.762 80471.943 792235.23
 -86548.712 86548.658 790581.21
 80471.945 76730.763 792235.23
 72542.166 72542.228 793394.77
 56968.615 68397.901 795032.27
 36105.322 65464.332 796499.11
 12337.768 63972.363 797342.66
 -12337.863 63972.356 797342.66
 -36105.411 65464.298 796499.11
 -56968.692 68397.851 795032.26
 -72542.227 72542.167 793394.77
 -80471.993 76730.692 792235.23
 75243.989 59527.800 794225.90
 68397.854 56968.693 795032.26
 54200.340 54200.401 796319.43
 34554.519 52128.175 797551.65
 11839.997 51045.882 798281.99
 -11840.071 51045.865 798281.99
 -34554.587 52128.138 797551.65
 -54200.401 54200.341 796319.43
 -68397.901 56968.613 795032.27
 -75244.028 59527.714 794225.90
 71710.308 37487.884 795897.16
 65464.298 36105.409 796499.11
 52128.140 34554.589 797551.65
 33350.399 33350.444 798608.48
 11447.289 32707.392 799249.14
 -11447.335 32707.379 799249.14
 -33350.444 33350.398 798608.48
 -52128.175 34554.519 797551.65
 -65464.331 36105.321 796499.11
 -71710.331 37487.782 795897.16
 69938.530 12777.284 796834.58
 63972.357 12337.866 797342.66
 51045.866 11840.068 798281.99
 32707.380 11447.336 799249.14
 11235.169 11235.185 799842.20
 -11235.185 11235.169 799842.20
 -32707.392 11447.288 799249.14
 -51045.881 11839.994 798281.99
 -63972.363 12337.770 797342.66
 -69938.539 12777.176 796834.58
 69938.539 -12777.176 796834.58
 63972.366 -12337.770 797342.66
 51045.881 -11839.994 798281.99
 32707.393 -11447.290 799249.14
 11235.187 -11235.168 799842.20
 -11235.168 -11235.187 799842.20
 -32707.379 -11447.336 799249.14
 -51045.863 -11840.069 798281.99
 -63972.356 -12337.866 797342.66
 -69938.528 -12777.285 796834.58
 71710.333 -37487.783 795897.16
 65464.331 -36105.321 796499.11
 52128.177 -34554.520 797551.65
 33350.445 -33350.398 798608.48
 11447.336 -32707.380 799249.14
 -11447.288 -32707.392 799249.14
 -33350.397 -33350.445 798608.48
 -52128.139 -34554.589 797551.65
 -65464.297 -36105.411 796499.11
 -71710.307 -37487.884 795897.16
 75244.029 -59527.714 794225.90
 68397.902 -56968.615 795032.27
 54200.402 -54200.340 796319.43
 34554.589 -52128.139 797551.65
 11840.071 -51045.865 798281.99
 -11839.995 -51045.882 798281.99
 -34554.518 -52128.175 797551.65
 -54200.340 -54200.403 796319.43
 -68397.852 -56968.691 795032.26
 -75243.988 -59527.801 794225.90
 80471.994 -76730.693 792235.23
 72542.229 -72542.166 793394.77
 56968.693 -68397.853 795032.26
 36105.411 -65464.299 796499.11
 12337.865 -63972.356 797342.66
 -12337.768 -63972.365 797342.66
 -36105.321 -65464.332 796499.11
 -56968.614 -68397.900 795032.27
 -72542.166 -72542.230 793394.77
 -80471.943 -76730.762 792235.23
 86548.713 -86548.659 790581.21
 76730.763 -80471.944 792235.23
 59527.801 -75243.989 794225.90
 37487.884 -71710.307 795897.16
 12777.286 -69938.530 796834.58
 -12777.176 -69938.539 796834.58
 -37487.782 -71710.332 795897.16
 -59527.713 -75244.029 794225.90
 -76730.692 -80471.993 792235.23
 -86548.658 -86548.713 790581.21
 28013.965 28014.018 799018.42
 24735.478 25697.807 799204.47
 19125.493 23623.787 799422.37
 12018.868 22199.513 799601.61
 4092.2488 21483.387 799701.02
 -4092.3509 21483.379 799701.02
 -12018.963 22199.489 799601.61
 -19125.576 23623.750 799422.37
 -24735.545 25697.760 799204.47
 -28014.017 28013.965 799018.42
 25697.760 24735.545 799204.47
 23089.137 23089.197 799333.34
 18087.936 21413.894 799508.77
 11447.053 20214.542 799662.64
 3908.9143 19603.775 799750.22
 -3909.0039 19603.763 799750.22
 -11447.137 20214.513 799662.64
 -18088.009 21413.848 799508.77
 -23089.196 23089.136 799333.34
 -25697.807 24735.478 799204.47
 23623.750 19125.576 799422.37
 21413.848 18088.008 799508.77
 16942.944 16943.001 799641.09
 10794.225 16082.307 799765.49
 3697.4938 15633.901 799838.68
 -3697.5629 15633.890 799838.68
 -10794.290 16082.270 799765.49
 -16943.000 16942.944 799641.09
 -21413.894 18087.936 799508.77
 -23623.787 19125.493 799422.37
 22199.490 12018.963 799601.61
 20214.514 11447.139 799662.64
 16082.270 10794.289 799765.49
 10287.937 10287.978 799867.69
 3531.3076 10019.232 799929.46
 -3531.3512 10019.218 799929.46
 -10287.977 10287.936 799867.69
 -16082.306 10794.224 799765.49
 -20214.542 11447.055 799662.64
 -22199.513 12018.867 799601.61
 21483.379 4092.3520 799701.02
 19603.764 3909.0019 799750.22
 15633.890 3697.5649 799838.68
 10019.217 3531.3503 799929.46
 3442.2742 3442.2893 799985.19
 -3442.2885 3442.2720 799985.19
 -10019.232 3531.3077 799929.46
 -15633.901 3697.4954 799838.68
 -19603.775 3908.9113 799750.22
 -21483.387 4092.2498 799701.02
 21483.387 -4092.2496 799701.02
 19603.774 -3908.9123 799750.22
 15633.902 -3697.4954 799838.68
 10019.233 -3531.3064 799929.46
 3442.2878 -3442.2747 799985.19
 -3442.2727 -3442.2870 799985.19
 -10019.217 -3531.3518 799929.46
 -15633.891 -3697.5651 799838.68
 -19603.762 -3909.0014 799750.22
 -21483.379 -4092.3525 799701.02
 22199.513 -12018.867 799601.61
 20214.543 -11447.055 799662.64
 16082.306 -10794.224 799765.49
 10287.978 -10287.938 799867.69
 3531.3515 -10019.217 799929.46
 -3531.3069 -10019.233 799929.46
 -10287.937 -10287.977 799867.69
 -16082.269 -10794.289 799765.49
 -20214.514 -11447.139 799662.64
 -22199.489 -12018.963 799601.61
 23623.787 -19125.494 799422.37
 21413.895 -18087.936 799508.77
 16943.001 -16942.945 799641.09
 10794.289 -16082.270 799765.49
 3697.5649 -15633.890 799838.68
 -3697.4950 -15633.901 799838.68
 -10794.224 -16082.307 799765.49
 -16942.944 -16943.000 799641.09
 -21413.848 -18088.010 799508.77
 -23623.750 -19125.576 799422.37
 25697.807 -24735.478 799204.47
 23089.196 -23089.137 799333.34
 18088.009 -21413.848 799508.77
 11447.139 -20214.514 799662.64
 3909.0023 -19603.763 799750.22
 -3908.9120 -19603.774 799750.22
 -11447.054 -20214.542 799662.64
 -18087.936 -21413.896 799508.77
 -23089.136 -23089.195 799333.34
 -25697.760 -24735.545 799204.47
 28014.018 -28013.965 799018.42
 24735.545 -25697.760 799204.47
 19125.576 -23623.750 799422.37
 12018.963 -22199.490 799601.61
 4092.3522 -21483.379 799701.02
 -4092.2492 -21483.387 799701.02
 -12018.867 -22199.514 799601.61
 -19125.493 -23623.787 799422.37
 -24735.478 -25697.807 799204.47
 -28013.965 -28014.017 799018.42
 -28014.018 -28013.965 799018.42
 -24735.545 -25697.759 799204.47
 -19125.576 -23623.750 799422.37
 -12018.964 -22199.489 799601.61
 -4092.3513 -21483.379 799701.02
 4092.2484 -21483.387 799701.02
 12018.868 -22199.513 799601.61
 19125.493 -23623.787 799422.37
 24735.478 -25697.807 799204.47
 28013.965 -28014.017 799018.42
 -25697.807 -24735.478 799204.47
 -23089.196 -23089.137 799333.34
 -18088.010 -21413.847 799508.77
 -11447.137 -20214.514 799662.64
 -3909.0043 -19603.763 799750.22
 3908.9140 -19603.774 799750.22
 11447.053 -20214.542 799662.64
 18087.937 -21413.895 799508.77
 23089.136 -23089.195 799333.34
 25697.760 -24735.545 799204.47
 -23623.787 -19125.493 799422.37
 -21413.895 -18087.935 799508.77
 -16943.000 -16942.945 799641.09
 -10794.291 -16082.270 799765.49
 -3697.5631 -15633.890 799838.68
 3697.4934 -15633.901 799838.68
 10794.225 -16082.307 799765.49
 16942.943 -16943.000 799641.09
 21413.849 -18088.009 799508.77
 23623.750 -19125.576 799422.37
 -22199.514 -12018.867 799601.61
 -20214.542 -11447.054 799662.64
 -16082.308 -10794.224 799765.49
 -10287.977 -10287.937 799867.69
 -3531.3518 -10019.217 799929.46
 3531.3071 -10019.233 799929.46
 10287.937 -10287.976 799867.69
 16082.270 -10794.290 799765.49
 20214.513 -11447.138 799662.64
 22199.490 -12018.963 799601.61
 -21483.387 -4092.2491 799701.02
 -19603.775 -3908.9129 799750.22
 -15633.901 -3697.4942 799838.68
 -10019.233 -3531.3070 799929.46
 -3442.2887 -3442.2743 799985.19
 3442.2739 -3442.2862 799985.19
 10019.217 -3531.3528 799929.46
 15633.890 -3697.5636 799838.68
 19603.764 -3909.0022 799750.22
 21483.379 -4092.3520 799701.02
 -21483.380 4092.3518 799701.02
 -19603.763 3909.0032 799750.22
 -15633.891 3697.5638 799838.68
 -10019.218 3531.3516 799929.46
 -3442.2732 3442.2890 799985.19
 3442.2874 3442.2720 799985.19
 10019.232 3531.3086 799929.46
 15633.902 3697.4944 799838.68
 19603.774 3908.9124 799750.22
 21483.387 4092.2496 799701.02
 -22199.490 12018.963 799601.61
 -20214.514 11447.138 799662.64
 -16082.270 10794.290 799765.49
 -10287.937 10287.978 799867.69
 -3531.3073 10019.232 799929.46
 3531.3511 10019.218 799929.46
 10287.977 10287.936 799867.69
 16082.307 10794.225 799765.49
 20214.542 11447.054 799662.64
 22199.513 12018.867 799601.61
 -23623.750 19125.576 799422.37
 -21413.849 18088.009 799508.77
 -16942.944 16943.001 799641.09
 -10794.224 16082.307 799765.49
 -3697.4954 15633.901 799838.68
 3697.5645 15633.890 799838.68
 10794.289 16082.270 799765.49
 16943.000 16942.944 799641.09
 21413.895 18087.937 799508.77
 23623.787 19125.493 799422.37
 -25697.761 24735.545 799204.47
 -23089.136 23089.197 799333.34
 -18087.937 21413.894 799508.77
 -11447.054 20214.543 799662.64
 -3908.9123 19603.775 799750.22
 3909.0021 19603.763 799750.22
 11447.138 20214.513 799662.64
 18088.010 21413.849 799508.77
 23089.195 23089.136 799333.34
 25697.807 24735.479 799204.47
 -28013.965 28014.018 799018.42
 -24735.479 25697.807 799204.47
 -19125.493 23623.787 799422.37
 -12018.868 22199.513 799601.61
 -4092.2496 21483.387 799701.02
 4092.3518 21483.379 799701.02
 12018.963 22199.490 799601.61
 19125.576 23623.750 799422.37
 24735.545 25697.760 799204.47
 28014.017 28013.965 799018.42
 -86548.713 -86548.658 790581.21
 -76730.762 -80471.944 792235.23
 -59527.802 -75243.988 794225.90
 -37487.883 -71710.307 795897.16
 -12777.286 -69938.529 796834.58
 12777.176 -69938.539 796834.58
 37487.781 -71710.332 795897.16
 59527.714 -75244.028 794225.90
 76730.691 -80471.993 792235.23
 86548.658 -86548.712 790581.21
 -80471.993 -76730.693 792235.23
 -72542.230 -72542.165 793394.77
 -56968.691 -68397.853 795032.26
 -36105.413 -65464.298 796499.11
 -12337.864 -63972.355 797342.66
 12337.767 -63972.365 797342.66
 36105.322 -65464.331 796499.11
 56968.612 -68397.900 795032.27
 72542.167 -72542.229 793394.77
 80471.943 -76730.762 792235.23
 -75244.029 -59527.713 794225.90
 -68397.900 -56968.615 795032.27
 -54200.404 -54200.340 796319.43
 -34554.587 -52128.138 797551.65
 -11840.072 -51045.865 798281.99
 11839.996 -51045.881 798281.99
 34554.517 -52128.175 797551.65
 54200.341 -54200.403 796319.43
 68397.850 -56968.691 795032.26
 75243.989 -59527.801 794225.90
 -71710.332 -37487.782 795897.16
 -65464.333 -36105.321 796499.11
 -52128.175 -34554.518 797551.65
 -33350.446 -33350.399 798608.48
 -11447.335 -32707.379 799249.14
 11447.287 -32707.391 799249.14
 33350.398 -33350.446 798608.48
 52128.137 -34554.586 797551.65
 65464.299 -36105.412 796499.11
 71710.306 -37487.883 795897.16
 -69938.540 -12777.176 796834.58
 -63972.364 -12337.768 797342.66
 -51045.883 -11839.996 798281.99
 -32707.392 -11447.287 799249.14
 -11235.187 -11235.168 799842.20
 11235.168 -11235.187 799842.20
 32707.379 -11447.333 799249.14
 51045.865 -11840.072 798281.99
 63972.355 -12337.863 797342.66
 69938.529 -12777.285 796834.58
 -69938.530 12777.286 796834.58
 -63972.357 12337.864 797342.66
 -51045.865 11840.072 798281.99
 -32707.380 11447.335 799249.14
 -11235.169 11235.186 799842.20
 11235.186 11235.170 799842.20
 32707.391 11447.287 799249.14
 51045.881 11839.997 798281.99
 63972.364 12337.768 797342.66
 69938.539 12777.177 796834.58
 -71710.307 37487.884 795897.16
 -65464.299 36105.412 796499.11
 -52128.139 34554.588 797551.65
 -33350.399 33350.446 798608.48
 -11447.289 32707.392 799249.14
 11447.335 32707.379 799249.14
 33350.444 33350.400 798608.48
 52128.174 34554.518 797551.65
 65464.332 36105.323 796499.11
 71710.331 37487.782 795897.16
 -75243.990 59527.801 794225.90
 -68397.851 56968.693 795032.26
 -54200.342 54200.402 796319.43
 -34554.519 52128.176 797551.65
 -11839.996 51045.882 798281.99
 11840.070 51045.865 798281.99
 34554.587 52128.138 797551.65
 54200.403 54200.342 796319.43
 68397.899 56968.613 795032.27
 75244.029 59527.714 794225.90
 -80471.944 76730.763 792235.23
 -72542.168 72542.228 793394.77
 -56968.613 68397.902 795032.27
 -36105.323 65464.331 796499.11
 -12337.769 63972.365 797342.66
 12337.864 63972.357 797342.66
 36105.411 65464.298 796499.11
 56968.690 68397.852 795032.26
 72542.230 72542.167 793394.77
 80471.992 76730.692 792235.23
 -86548.659 86548.713 790581.21
 -76730.692 80471.994 792235.23
 -59527.715 75244.029 794225.90
 -37487.783 71710.332 795897.16
 -12777.177 69938.540 796834.58
 12777.285 69938.530 796834.58
 37487.883 71710.307 795897.16
 59527.801 75243.989 794225.90
 76730.761 80471.944 792235.23
 86548.713 86548.659 790581.21
 -150244.49 -150244.43 771267.27
 -133995.72 -143337.38 775564.02
 -104432.85 -138100.96 781038.99
 -65973.536 -134740.22 785806.95
 -22524.045 -133070.55 788533.38
 22523.924 -133070.56 788533.38
 65973.424 -134740.25 785806.96
 104432.75 -138101.01 781039.00
 133995.64 -143337.43 775564.02
 150244.43 -150244.49 771267.27
 -143337.43 -133995.64 775564.02
 -129808.53 -129808.46 778652.37
 -102256.63 -126014.15 783367.10
 -64948.111 -123421.35 787749.27
 -22221.531 -122106.41 790314.01
 22221.422 -122106.43 790314.01
 64948.009 -123421.39 787749.27
 102256.55 -126014.21 783367.10
 129808.46 -129808.53 778652.37
 143337.38 -133995.72 775564.02
 -138101.01 -104432.75 781039.00
 -126014.21 -102256.54 783367.10
 -100029.29 -100029.22 787393.35
 -63844.763 -98364.757 791358.47
 -21892.770 -97481.107 793736.82
 21892.683 -97481.120 793736.82
 63844.681 -98364.804 791358.47
 100029.22 -100029.29 787393.36
 126014.15 -102256.63 783367.10
 138100.96 -104432.84 781038.99
 -134740.25 -65973.424 785806.96
 -123421.39 -64948.011 787749.27
 -98364.806 -63844.682 791358.47
 -62959.837 -62959.786 795029.64
 -21619.235 -62468.422 797264.26
 21619.177 -62468.443 797264.26
 62959.785 -62959.834 795029.64
 98364.757 -63844.763 791358.47
 123421.35 -64948.109 787749.27
 134740.22 -65973.535 785806.95
 -133070.56 -22523.924 788533.38
 -122106.43 -22221.422 790314.01
 -97481.120 -21892.683 793736.82
 -62468.445 -21619.179 797264.26
 -21463.283 -21463.263 799423.95
 21463.263 -21463.280 799423.95
 62468.422 -21619.235 797264.26
 97481.107 -21892.767 793736.82
 122106.41 -22221.530 790314.01
 133070.55 -22524.043 788533.38
 -133070.55 22524.045 788533.38
 -122106.41 22221.530 790314.01
 -97481.110 21892.769 793736.82
 -62468.423 21619.235 797264.26
 -21463.265 21463.282 799423.95
 21463.281 21463.264 799423.95
 62468.442 21619.180 797264.26
 97481.119 21892.683 793736.82
 122106.43 22221.424 790314.01
 133070.56 22523.925 788533.38
 -134740.22 65973.535 785806.95
 -123421.36 64948.112 787749.27
 -98364.759 63844.762 791358.47
 -62959.788 62959.836 795029.64
 -21619.179 62468.444 797264.26
 21619.232 62468.423 797264.26
 62959.835 62959.787 795029.64
 98364.804 63844.684 791358.47
 123421.39 64948.010 787749.27
 134740.25 65973.425 785806.96
 -138100.96 104432.85 781038.99
 -126014.15 102256.63 783367.10
 -100029.22 100029.29 787393.35
 -63844.683 98364.805 791358.47
 -21892.685 97481.120 793736.82
 21892.768 97481.109 793736.82
 63844.762 98364.758 791358.47
 100029.29 100029.22 787393.35
 126014.21 102256.55 783367.10
 138101.01 104432.75 781039.00
 -143337.38 133995.72 775564.02
 -129808.46 129808.53 778652.37
 -102256.55 126014.21 783367.10
 -64948.011 123421.39 787749.27
 -22221.423 122106.43 790314.01
 22221.529 122106.41 790314.01
 64948.109 123421.36 787749.27
 102256.63 126014.15 783367.10
 129808.53 129808.46 778652.37
 143337.43 133995.64 775564.02
 -150244.43 150244.49 771267.27
 -133995.64 143337.43 775564.02
 -104432.75 138101.01 781039.00
 -65973.426 134740.25 785806.96
 -22523.926 133070.56 788533.38
 22524.043 133070.55 788533.38
 65973.534 134740.22 785806.95
 104432.84 138100.96 781038.99
 133995.72 143337.38 775564.02
 150244.49 150244.43 771267.27
 -215133.09 -215133.02 739888.87
 -192214.22 -212572.09 746904.81
 -150007.82 -212081.74 756649.84
 -94964.260 -212163.29 765485.81
 -32475.004 -212250.39 770645.93
 32474.871 -212250.40 770645.93
 94964.137 -212163.32 765485.82
 150007.72 -212081.79 756649.85
 192214.14 -212572.15 746904.82
 215133.02 -215133.08 739888.87
 -212572.15 -192214.14 746904.82
 -192519.58 -192519.50 752244.94
 -151636.93 -193428.17 761309.26
 -96461.821 -194250.80 770040.09
 -33054.786 -194686.57 775244.81
 33054.663 -194686.59 775244.81
 96461.707 -194250.84 770040.10
 151636.83 -193428.23 761309.26
 192519.50 -192519.58 752244.94
 212572.09 -192214.22 746904.82
 -212081.80 -150007.72 756649.85
 -193428.23 -151636.84 761309.26
 -153403.70 -153403.62 770022.49
 -98033.229 -154661.42 778761.41
 -33666.976 -155284.02 784062.12
 33666.874 -155284.04 784062.12
 98033.136 -154661.47 778761.41
 153403.62 -153403.70 770022.49
 193428.17 -151636.93 761309.26
 212081.74 -150007.82 756649.84
 -212163.32 -94964.137 765485.82
 -194250.84 -96461.707 770040.10
 -154661.47 -98033.137 778761.41
 -99119.536 -99119.472 787623.42
 -34089.640 -99648.418 793037.26
 34089.573 -99648.438 793037.26
 99119.471 -99119.534 787623.42
 154661.42 -98033.226 778761.41
 194250.80 -96461.820 770040.09
 212163.28 -94964.258 765485.81
 -212250.41 -32474.871 770645.93
 -194686.59 -33054.663 775244.81
 -155284.04 -33666.876 784062.12
 -99648.440 -34089.573 793037.26
 -34294.790 -34294.764 798528.48
 34294.763 -34294.787 798528.48
 99648.418 -34089.637 793037.26
 155284.02 -33666.975 784062.12
 194686.57 -33054.783 775244.81
 212250.39 -32475.003 770645.93
 -212250.39 32475.004 770645.93
 -194686.57 33054.786 775244.81
 -155284.02 33666.976 784062.12
 -99648.422 34089.639 793037.26
 -34294.766 34294.789 798528.48
 34294.786 34294.765 798528.48
 99648.437 34089.574 793037.26
 155284.04 33666.878 784062.12
 194686.58 33054.663 775244.81
 212250.40 32474.873 770645.93
 -212163.29 94964.260 765485.81
 -194250.80 96461.820 770040.09
 -154661.42 98033.229 778761.41
 -99119.474 99119.535 787623.42
 -34089.576 99648.439 793037.26
 34089.638 99648.421 793037.26
 99119.533 99119.474 787623.42
 154661.47 98033.137 778761.41
 194250.84 96461.710 770040.10
 212163.32 94964.138 765485.82
 -212081.75 150007.82 756649.84
 -193428.17 151636.93 761309.26
 -153403.62 153403.70 770022.49
 -98033.138 154661.47 778761.41
 -33666.877 155284.04 784062.12
 33666.973 155284.02 784062.12
 98033.226 154661.42 778761.41
 153403.70 153403.62 770022.49
 193428.23 151636.84 761309.26
 212081.79 150007.72 756649.85
 -212572.09 192214.22 746904.81
 -192519.50 192519.58 752244.94
 -151636.84 193428.24 761309.26
 -96461.710 194250.84 770040.10
 -33054.665 194686.59 775244.81
 33054.783 194686.57 775244.81
 96461.819 194250.80 770040.09
 151636.93 193428.17 761309.26
 192519.58 192519.50 752244.94
 212572.15 192214.14 746904.82
 -215133.02 215133.09 739888.87
 -192214.14 212572.15 746904.82
 -150007.72 212081.79 756649.85
 -94964.139 212163.32 765485.82
 -32474.873 212250.41 770645.93
 32475.002 212250.39 770645.93
 94964.257 212163.29 765485.81
 150007.82 212081.75 756649.84
 192214.22 212572.09 746904.82
 215133.09 215133.02 739888.87
 -267675.09 -267675.02 704769.56
 -235952.78 -274263.36 713516.57
 -183083.87 -280984.35 726311.29
 -115855.91 -285920.27 738123.98
 -39654.855 -288491.26 745117.63
 39654.713 -288491.27 745117.63
 115855.78 -285920.31 738123.98
 183083.76 -280984.40 726311.30