# OOMMF OVF 2.0
#
# Segment count: 1
#
# Begin: Segment
# Begin: Header
#
# Title: Oxs_MinDriver::Magnetization
# Desc: Oxs vector field output
# Desc:  MIF source file: /home/ryan/Git/joommf/tools/omfvis/cube_example.mif
# Desc:  Iteration: 5265, State id: 11202
# Desc:  Stage: 30, Stage iteration: 31
# Desc:  Stage simulation time: 0 s
# Desc:  Total simulation time: -2 s
# meshunit: m
# meshtype: rectangular
# xbase: 2.5000000000000001e-09
# ybase: 2.5000000000000001e-09
# zbase: 2.5000000000000001e-09
# xnodes: 10
# ynodes: 10
# znodes: 10
# xstepsize: 5.0000000000000001e-09
# ystepsize: 5.0000000000000001e-09
# zstepsize: 5.0000000000000001e-09
# xmin: 0
# ymin: 0
# zmin: 0
# xmax: 4.9999999999999998e-08
# ymax: 4.9999999999999998e-08
# zmax: 4.9999999999999998e-08
# valuedim: 3
# valuelabels: Magnetization_x Magnetization_y Magnetization_z
# valueunits: A/m A/m A/m
#
# End: Header
#
# Begin: Data Text
 271668.74 271668.84 701706.59
 239892.03 278170.47 710684.88
 186487.33 284860.75 723931.51
 118183.50 289810.09 736235.54
 40484.132 292401.83 743547.04
 -40484.334 292401.81 743547.04
 -118183.69 289810.04 736235.53
 -186487.49 284860.66 723931.50
 -239892.15 278170.38 710684.88
 -271668.83 271668.74 701706.59
 278170.38 239892.15 710684.88
 248426.36 248426.47 718727.09
 194780.82 256335.49 732360.94
 124109.32 262085.49 745592.43
 42626.833 265101.49 753594.16
 -42627.023 265101.46 753594.16
 -124109.49 262085.42 745592.43
 -194780.97 256335.39 732360.94
 -248426.47 248426.35 718727.10
 -278170.47 239892.02 710684.89
 284860.67 186487.49 723931.50
 256335.39 194780.97 732360.94
 202516.53 202516.66 746976.61
 129759.99 208136.02 761473.40
 44697.346 211087.79 770353.23
 -44697.501 211087.76 770353.23
 -129760.14 208135.93 761473.40
 -202516.65 202516.52 746976.61
 -256335.49 194780.81 732360.94
 -284860.74 186487.33 723931.51
 289810.04 118183.69 736235.53
 262085.43 124109.50 745592.42
 208135.93 129760.14 761473.40
 133898.32 133898.41 777266.01
 46223.248 136079.40 786985.27
 -46223.346 136079.36 786985.27
 -133898.41 133898.31 777266.02
 -208136.01 129759.98 761473.41
 -262085.49 124109.31 745592.43
 -289810.09 118183.50 736235.54
 292401.82 40484.338 743547.04
 265101.47 42627.027 753594.15
 211087.76 44697.507 770353.22
 136079.38 46223.351 786985.26
 47029.581 47029.610 797230.48
 -47029.604 47029.570 797230.48
 -136079.40 46223.237 786985.27
 -211087.78 44697.335 770353.23
 -265101.49 42626.824 753594.16
 -292401.83 40484.123 743547.04
 292401.84 -40484.128 743547.04
 265101.50 -42626.828 753594.15
 211087.80 -44697.341 770353.22
 136079.41 -46223.243 786985.26
 47029.622 -47029.576 797230.48
 -47029.564 -47029.616 797230.48
 -136079.36 -46223.357 786985.27
 -211087.75 -44697.512 770353.23
 -265101.46 -42627.032 753594.16
 -292401.81 -40484.343 743547.04
 289810.10 -118183.50 736235.54
 262085.50 -124109.32 745592.43
 208136.02 -129759.99 761473.40
 133898.42 -133898.31 777266.01
 46223.363 -136079.37 786985.26
 -46223.232 -136079.41 786985.27
 -133898.30 -133898.42 777266.02
 -208135.92 -129760.15 761473.40
 -262085.42 -124109.50 745592.43
 -289810.03 -118183.70 736235.53
 284860.75 -186487.33 723931.51
 256335.50 -194780.82 732360.94
 202516.67 -202516.53 746976.61
 129760.15 -208135.93 761473.40
 44697.516 -211087.76 770353.22
 -44697.330 -211087.79 770353.23
 -129759.98 -208136.02 761473.40
 -202516.52 -202516.66 746976.61
 -256335.39 -194780.97 732360.94
 -284860.66 -186487.50 723931.50
 278170.48 -239892.02 710684.88
 248426.48 -248426.35 718727.09
 194780.98 -256335.39 732360.93
 124109.51 -262085.42 745592.42
 42627.037 -265101.47 753594.15
 -42626.820 -265101.49 753594.16
 -124109.31 -262085.49 745592.43
 -194780.81 -256335.50 732360.94
 -248426.35 -248426.48 718727.09
 -278170.38 -239892.15 710684.88
 271668.84 -271668.74 701706.59
 239892.16 -278170.38 710684.88
 186487.50 -284860.67 723931.50
 118183.70 -289810.04 736235.53
 40484.346 -292401.82 743547.04
 -40484.120 -292401.83 743547.04
 -118183.49 -289810.09 736235.54
 -186487.32 -284860.75 723931.51
 -239892.02 -278170.48 710684.88
 -271668.74 -271668.84 701706.59
 218924.20 218924.29 737661.40
 195799.43 216149.50 744944.28
 152994.54 215469.77 755093.01
 96952.562 215418.77 764326.47
 33173.146 215437.93 769731.15
 -33173.339 215437.91 769731.15
 -96952.738 215418.72 764326.46
 -152994.69 215469.69 755093.00
 -195799.55 216149.40 744944.27
 -218924.29 218924.20 737661.41
 216149.41 195799.55 744944.27
 195961.05 195961.16 750465.51
 154543.33 196731.31 759877.06
 98411.300 197456.57 768977.32
 33741.486 197843.09 774415.67
 -33741.661 197843.07 774415.66
 -98411.462 197456.50 768977.32
 -154543.47 196731.21 759877.06
 -195961.16 195961.05 750465.52
 -216149.49 195799.42 744944.28
 215469.69 152994.69 755093.00
 196731.22 154543.47 759877.06
 156228.60 156228.72 768885.69
 99943.423 157427.61 777963.92
 34342.371 158020.28 783485.92
 -34342.511 158020.25 783485.92
 -99943.552 157427.53 777963.92
 -156228.72 156228.60 768885.70
 -196731.31 154543.32 759877.06
 -215469.76 152994.54 755093.01
 215418.73 96952.742 764326.46
 197456.51 98411.465 768977.31
 157427.54 99943.557 777963.92
 101000.68 101000.77 787145.29
 34756.592 101514.68 792771.56
 -34756.679 101514.65 792771.56
 -101000.76 101000.67 787145.29
 -157427.61 99943.415 777963.92
 -197456.56 98411.293 768977.32
 -215418.77 96952.554 764326.47
 215437.91 33173.342 769731.14
 197843.07 33741.666 774415.66
 158020.25 34342.514 783485.92
 101514.66 34756.684 792771.56
 34957.373 34957.400 798471.02
 -34957.396 34957.364 798471.02
 -101514.68 34756.584 792771.56
 -158020.27 34342.362 783485.93
 -197843.08 33741.478 774415.67
 -215437.92 33173.139 769731.15
 215437.93 -33173.143 769731.15
 197843.09 -33741.483 774415.67
 158020.28 -34342.366 783485.92
 101514.69 -34756.589 792771.56
 34957.409 -34957.369 798471.02
 -34957.360 -34957.404 798471.02
 -101514.65 -34756.689 792771.56
 -158020.24 -34342.519 783485.93
 -197843.06 -33741.669 774415.66
 -215437.90 -33173.345 769731.15
 215418.78 -96952.559 764326.47
 197456.57 -98411.297 768977.32
 157427.62 -99943.421 777963.92
 101000.77 -101000.68 787145.29
 34756.692 -101514.66 792771.56
 -34756.580 -101514.69 792771.56
 -101000.67 -101000.77 787145.29
 -157427.53 -99943.560 777963.92
 -197456.50 -98411.469 768977.32
 -215418.72 -96952.744 764326.46
 215469.77 -152994.54 755093.01
 196731.32 -154543.33 759877.06
 156228.73 -156228.60 768885.69
 99943.564 -157427.54 777963.92
 34342.523 -158020.25 783485.92
 -34342.359 -158020.28 783485.92
 -99943.412 -157427.62 777963.92
 -156228.60 -156228.72 768885.70
 -196731.21 -154543.48 759877.06
 -215469.69 -152994.70 755093.00
 216149.50 -195799.43 744944.28
 195961.17 -195961.05 750465.51
 154543.48 -196731.22 759877.06
 98411.473 -197456.51 768977.31
 33741.672 -197843.07 774415.66
 -33741.474 -197843.09 774415.67
 -98411.291 -197456.57 768977.32
 -154543.32 -196731.31 759877.06
 -195961.05 -195961.17 750465.52
 -216149.40 -195799.55 744944.27
 218924.30 -218924.20 737661.40
 195799.56 -216149.41 744944.27
 152994.70 -215469.69 755093.00
 96952.748 -215418.73 764326.46
 33173.349 -215437.91 769731.15
 -33173.136 -215437.93 769731.15
 -96952.552 -215418.77 764326.47
 -152994.53 -215469.77 755093.01
 -195799.42 -216149.50 744944.28
 -218924.19 -218924.29 737661.41
 153279.00 153279.09 770072.12
 136761.41 146090.98 774566.81
 106649.38 140567.57 780299.09
 67405.927 136987.06 785296.75
 23018.985 135199.02 788156.93
 -23019.163 135199.01 788156.93
 -67406.091 136987.02 785296.74
 -106649.52 140567.50 780299.08
 -136761.52 146090.90 774566.81
 -153279.08 153278.99 770072.12
 146090.90 136761.52 774566.80
 132357.27 132357.37 777793.73
 104323.47 128324.21 782719.30
 66291.641 125545.49 787301.56
 22686.778 124130.20 789985.44
 -22686.936 124130.18 789985.44
 -66291.787 125545.44 787301.56
 -104323.59 128324.13 782719.30
 -132357.37 132357.26 777793.73
 -146090.98 136761.40 774566.81
 140567.51 106649.52 780299.08
 128324.13 104323.60 782719.30
 101924.16 101924.26 786907.18
 65085.197 100122.58 791036.91
 22323.633 99164.098 793516.31
 -22323.756 99164.077 793516.31
 -65085.312 100122.51 791036.90
 -101924.26 101924.15 786907.18
 -128324.21 104323.47 782719.31
 -140567.57 106649.37 780299.09
 136987.02 67406.094 785296.74
 125545.44 66291.791 787301.56
 100122.52 65085.314 791036.90
 64116.801 64116.874 794844.68
 22022.102 63579.515 797165.40
 -22022.179 63579.485 797165.40
 -64116.871 64116.795 794844.68
 -100122.58 65085.192 791036.91
 -125545.49 66291.635 787301.56
 -136987.06 67405.922 785296.75
 135199.01 23019.166 788156.93
 124130.18 22686.937 789985.44
 99164.082 22323.761 793516.31
 63579.491 22022.180 797165.40
 21850.697 21850.720 799402.96
 -21850.716 21850.691 799402.96
 -63579.512 22022.095 797165.40
 -99164.095 22323.628 793516.31
 -124130.20 22686.772 789985.45
 -135199.02 23018.981 788156.93
 135199.02 -23018.984 788156.93
 124130.21 -22686.775 789985.44
 99164.104 -22323.632 793516.31
 63579.520 -22022.098 797165.40
 21850.725 -21850.694 799402.96
 -21850.688 -21850.723 799402.96
 -63579.482 -22022.184 797165.40
 -99164.074 -22323.763 793516.31
 -124130.18 -22686.940 789985.44
 -135199.00 -23019.168 788156.93
 136987.07 -67405.926 785296.75
 125545.50 -66291.640 787301.56
 100122.59 -65085.194 791036.91
 64116.879 -64116.799 794844.68
 22022.187 -63579.488 797165.40
 -22022.093 -63579.517 797165.40
 -64116.793 -64116.877 794844.68
 -100122.51 -65085.317 791036.90
 -125545.44 -66291.792 787301.56
 -136987.02 -67406.096 785296.74
 140567.57 -106649.38 780299.09
 128324.22 -104323.47 782719.30
 101924.27 -101924.16 786907.18
 65085.320 -100122.51 791036.90
 22323.764 -99164.079 793516.31
 -22323.625 -99164.101 793516.31
 -65085.190 -100122.58 791036.91
 -101924.15 -101924.26 786907.18
 -128324.13 -104323.60 782719.30
 -140567.50 -106649.52 780299.08
 146090.99 -136761.41 774566.81
 132357.37 -132357.27 777793.73
 104323.60 -128324.13 782719.30
 66291.795 -125545.44 787301.56
 22686.944 -124130.18 789985.44
 -22686.771 -124130.20 789985.44
 -66291.633 -125545.49 787301.56
 -104323.46 -128324.22 782719.30
 -132357.26 -132357.37 777793.73
 -146090.90 -136761.52 774566.81
 153279.09 -153279.00 770072.12
 136761.52 -146090.90 774566.80
 106649.52 -140567.50 780299.08
 67406.099 -136987.02 785296.74
 23019.170 -135199.01 788156.93
 -23018.978 -135199.02 788156.93
 -67405.921 -136987.07 785296.75
 -106649.37 -140567.57 780299.09
 -136761.40 -146090.98 774566.81
 -153278.99 -153279.09 770072.12
 88448.291 88448.374 790160.61
 78418.580 82142.539 791898.43
 60842.765 76672.978 793989.55
 38319.128 72953.184 795744.61
 13061.097 71081.499 796728.83
 -13061.260 71081.484 796728.83
 -38319.280 72953.144 795744.60
 -60842.896 76672.916 793989.55
 -78418.684 82142.461 791898.43
 -88448.372 88448.288 790160.61
 82142.464 78418.686 791898.43
 74050.667 74050.762 793116.00
 58158.165 69703.065 794832.76
 36861.852 66610.155 796369.44
 12596.707 65032.408 797252.85
 -12596.851 65032.394 797252.85
 -36861.986 66610.105 796369.44
 -58158.281 69702.987 794832.75
 -74050.760 74050.665 793116.00
 -82142.537 78418.576 791898.43
 76672.918 60842.898 793989.55
 69702.992 58158.284 794832.75
 55241.772 55241.864 796176.29
 35221.732 53051.147 797461.60
 12069.090 51904.543 798223.19
 -12069.201 51904.520 798223.19
 -35221.835 53051.087 797461.60
 -55241.863 55241.770 796176.29
 -69703.064 58158.161 794832.76
 -76672.976 60842.762 793989.55
 72953.148 38319.283 795744.60
 66610.107 36861.987 796369.44
 53051.091 35221.838 797461.60
 33945.326 33945.392 798558.34
 11652.127 33262.836 799223.26
 -11652.195 33262.813 799223.26
 -33945.391 33945.323 798558.34
 -53051.145 35221.729 797461.60
 -66610.153 36861.848 796369.44
 -72953.182 38319.125 795744.61
 71081.487 13061.261 796728.83
 65032.396 12596.855 797252.85
 51904.523 12069.201 798223.19
 33262.817 11652.198 799223.25
 11426.719 11426.741 799836.77
 -11426.740 11426.716 799836.77
 -33262.834 11652.123 799223.26
 -51904.541 12069.085 798223.19
 -65032.407 12596.706 797252.85
 -71081.497 13061.093 796728.83
 71081.501 -13061.095 796728.83
 65032.412 -12596.708 797252.85
 51904.546 -12069.087 798223.19
 33262.839 -11652.126 799223.26
 11426.745 -11426.717 799836.77
 -11426.715 -11426.744 799836.77
 -33262.812 -11652.198 799223.26
 -51904.518 -12069.202 798223.19
 -65032.393 -12596.856 797252.85
 -71081.482 -13061.262 796728.83
 72953.187 -38319.128 795744.61
 66610.157 -36861.850 796369.44
 53051.150 -35221.731 797461.60
 33945.396 -33945.324 798558.34
 11652.200 -33262.815 799223.26
 -11652.122 -33262.837 799223.26
 -33945.321 -33945.394 798558.34
 -53051.087 -35221.838 797461.60
 -66610.103 -36861.988 796369.44
 -72953.144 -38319.283 795744.60
 76672.980 -60842.764 793989.55
 69703.068 -58158.165 794832.76
 55241.867 -55241.771 796176.29
 35221.840 -53051.090 797461.60
 12069.205 -51904.522 798223.19
 -12069.084 -51904.544 798223.19
 -35221.727 -53051.148 797461.60
 -55241.768 -55241.866 796176.29
 -69702.987 -58158.283 794832.75
 -76672.915 -60842.898 793989.55
 82142.541 -78418.580 791898.43
 74050.765 -74050.667 793116.00
 58158.285 -69702.991 794832.75
 36861.990 -66610.106 796369.44
 12596.857 -65032.395 797252.85
 -12596.704 -65032.410 797252.85
 -36861.847 -66610.156 796369.44
 -58158.161 -69703.065 794832.76
 -74050.664 -74050.763 793116.00
 -82142.460 -78418.686 791898.43
 88448.376 -88448.291 790160.61
 78418.688 -82142.464 791898.43
 60842.900 -76672.918 793989.55
 38319.285 -72953.146 795744.60
 13061.264 -71081.486 796728.83
 -13061.092 -71081.499 796728.83
 -38319.124 -72953.184 795744.61
 -60842.761 -76672.979 793989.55
 -78418.576 -82142.538 791898.43
 -88448.288 -88448.374 790160.61
 28652.207 28652.287 798973.15
 25295.446 26249.576 799169.01
 19555.572 24083.709 799398.25
 12287.723 22588.869 799586.61
 4183.5074 21835.036 799691.02
 -4183.6645 21835.024 799691.02
 -12287.870 22588.831 799586.61
 -19555.699 24083.651 799398.24
 -25295.548 26249.503 799169.01
 -28652.286 28652.205 798973.15
 26249.504 25295.549 799169.01
 23581.538 23581.630 799304.58
 18470.969 21829.123 799488.78
 11688.053 20569.355 799650.11
 3990.9178 19926.181 799741.85
 -3991.0553 19926.164 799741.85
 -11688.182 20569.310 799650.10
 -18471.081 21829.051 799488.78
 -23581.628 23581.537 799304.58
 -26249.575 25295.445 799169.01
 24083.652 19555.700 799398.24
 21829.052 18471.081 799488.78
 17269.936 17270.023 799627.10
 11001.578 16364.536 799756.94
 3768.2909 15891.907 799833.26
 -3768.3968 15891.888 799833.26
 -11001.677 16364.480 799756.94
 -17270.022 17269.934 799627.10
 -21829.122 18470.968 799488.78
 -24083.708 19555.571 799398.25
 22588.832 12287.870 799586.61
 20569.311 11688.184 799650.10
 16364.481 11001.677 799756.94
 10468.083 10468.146 799863.01
 3593.0068 10184.584 799927.10
 -3593.0730 10184.562 799927.10
 -10468.145 10468.082 799863.01
 -16364.535 11001.576 799756.94
 -20569.354 11688.053 799650.11
 -22588.868 12287.721 799586.62
 21835.025 4183.6659 799691.02
 19926.165 3991.0547 799741.85
 15891.889 3768.3987 799833.26
 10184.563 3593.0731 799927.10
 3499.0092 3499.0316 799984.70
 -3499.0304 3499.0067 799984.70
 -10184.583 3593.0061 799927.10
 -15891.906 3768.2912 799833.26
 -19926.180 3990.9148 799741.85
 -21835.035 4183.5073 799691.02
 21835.037 -4183.5074 799691.02
 19926.181 -3990.9158 799741.85
 15891.908 -3768.2914 799833.26
 10184.585 -3593.0054 799927.10
 3499.0312 -3499.0089 799984.70
 -3499.0065 -3499.0299 799984.70
 -10184.561 -3593.0743 799927.10
 -15891.888 -3768.3990 799833.26
 -19926.163 -3991.0543 799741.85
 -21835.024 -4183.6663 799691.02
 22588.869 -12287.722 799586.61
 20569.356 -11688.054 799650.11
 16364.537 -11001.577 799756.94
 10468.147 -10468.083 799863.01
 3593.0747 -10184.562 799927.10
 -3593.0049 -10184.585 799927.10
 -10468.082 -10468.146 799863.01
 -16364.478 -11001.678 799756.94
 -20569.309 -11688.183 799650.10
 -22588.831 -12287.870 799586.61
 24083.709 -19555.572 799398.25
 21829.124 -18470.968 799488.78
 17270.023 -17269.935 799627.10
 11001.678 -16364.480 799756.94
 3768.3996 -15891.889 799833.26
 -3768.2904 -15891.907 799833.26
 -11001.576 -16364.536 799756.94
 -17269.934 -17270.022 799627.10
 -21829.050 -18471.081 799488.78
 -24083.650 -19555.699 799398.24
 26249.577 -25295.446 799169.01
 23581.630 -23581.538 799304.58
 18471.082 -21829.051 799488.78
 11688.184 -20569.310 799650.10
 3991.0555 -19926.164 799741.85
 -3990.9147 -19926.180 799741.85
 -11688.052 -20569.355 799650.11
 -18470.967 -21829.123 799488.78
 -23581.536 -23581.628 799304.58
 -26249.503 -25295.549 799169.01
 28652.287 -28652.206 798973.15
 25295.550 -26249.503 799169.01
 19555.700 -24083.652 799398.24
 12287.871 -22588.832 799586.61
 4183.6668 -21835.024 799691.02
 -4183.5064 -21835.037 799691.02
 -12287.721 -22588.869 799586.62
 -19555.570 -24083.708 799398.25
 -25295.445 -26249.576 799169.01
 -28652.205 -28652.286 798973.15
 -28652.287 -28652.205 798973.15
 -25295.549 -26249.502 799169.01
 -19555.700 -24083.651 799398.24
 -12287.871 -22588.831 799586.61
 -4183.6658 -21835.023 799691.02
 4183.5060 -21835.036 799691.02
 12287.722 -22588.868 799586.62
 19555.570 -24083.708 799398.25
 25295.445 -26249.576 799169.01
 28652.205 -28652.286 798973.15
 -26249.576 -25295.445 799169.01
 -23581.629 -23581.538 799304.58
 -18471.082 -21829.050 799488.78
 -11688.183 -20569.309 799650.10
 -3991.0568 -19926.164 799741.85
 3990.9165 -19926.179 799741.85
 11688.051 -20569.354 799650.11
 18470.968 -21829.123 799488.78
 23581.536 -23581.628 799304.58
 26249.503 -25295.548 799169.01
 -24083.709 -19555.571 799398.25
 -21829.123 -18470.967 799488.78
 -17270.022 -17269.935 799627.10
 -11001.679 -16364.479 799756.94
 -3768.3979 -15891.888 799833.26
 3768.2894 -15891.906 799833.26
 11001.577 -16364.536 799756.94
 17269.933 -17270.022 799627.10
 21829.051 -18471.081 799488.78
 24083.651 -19555.699 799398.24
 -22588.869 -12287.721 799586.62
 -20569.355 -11688.053 799650.11
 -16364.537 -11001.576 799756.94
 -10468.146 -10468.082 799863.01
 -3593.0747 -10184.561 799927.10
 3593.0054 -10184.584 799927.10
 10468.082 -10468.144 799863.01
 16364.480 -11001.678 799756.94
 20569.309 -11688.183 799650.10
 22588.831 -12287.869 799586.61
 -21835.037 -4183.5065 799691.02
 -19926.181 -3990.9156 799741.85
 -15891.907 -3768.2900 799833.26
 -10184.585 -3593.0052 799927.10
 -3499.0316 -3499.0079 799984.70
 3499.0077 -3499.0289 799984.70
 10184.561 -3593.0744 799927.10
 15891.888 -3768.3975 799833.26
 19926.164 -3991.0544 799741.85
 21835.023 -4183.6655 799691.02
 -21835.025 4183.6662 799691.02
 -19926.164 3991.0560 799741.85
 -15891.889 3768.3986 799833.26
 -10184.562 3593.0745 799927.10
 -3499.0079 3499.0320 799984.70
 3499.0299 3499.0073 799984.70
 10184.584 3593.0073 799927.10
 15891.907 3768.2911 799833.26
 19926.180 3990.9161 799741.85
 21835.036 4183.5077 799691.02
 -22588.832 12287.871 799586.61
 -20569.310 11688.184 799650.10
 -16364.480 11001.678 799756.94
 -10468.083 10468.146 799863.01
 -3593.0063 10184.585 799927.10
 3593.0734 10184.563 799927.10
 10468.145 10468.083 799863.01
 16364.536 11001.578 799756.94
 20569.355 11688.053 799650.11
 22588.868 12287.722 799586.62
 -24083.652 19555.701 799398.24
 -21829.052 18471.081 799488.78
 -17269.935 17270.023 799627.10
 -11001.577 16364.537 799756.94
 -3768.2917 15891.907 799833.26
 3768.3983 15891.889 799833.26
 11001.677 16364.481 799756.94
 17270.022 17269.935 799627.10
 21829.123 18470.969 799488.78
 24083.708 19555.572 799398.25
 -26249.504 25295.549 799169.01
 -23581.537 23581.630 799304.58
 -18470.969 21829.123 799488.78
 -11688.054 20569.356 799650.11
 -3990.9159 19926.181 799741.85
 3991.0544 19926.165 799741.85
 11688.183 20569.310 799650.10
 18471.082 21829.052 799488.78
 23581.628 23581.537 799304.58
 26249.576 25295.446 799169.01
 -28652.206 28652.287 798973.15
 -25295.446 26249.576 799169.01
 -19555.572 24083.709 799398.25
 -12287.722 22588.869 799586.61
 -4183.5077 21835.037 799691.02
 4183.6656 21835.025 799691.02
 12287.870 22588.832 799586.61
 19555.699 24083.652 799398.24
 25295.549 26249.504 799169.01
 28652.287 28652.206 798973.15
 -88448.375 -88448.289 790160.61
 -78418.687 -82142.462 791898.43
 -60842.900 -76672.916 793989.55
 -38319.284 -72953.145 795744.60
 -13061.265 -71081.484 796728.83
 13061.093 -71081.497 796728.83
 38319.124 -72953.183 795744.61
 60842.761 -76672.977 793989.55
 78418.576 -82142.537 791898.43
 88448.288 -88448.373 790160.61
 -82142.540 -78418.578 791898.43
 -74050.764 -74050.664 793116.00
 -58158.284 -69702.989 794832.75
 -36861.990 -66610.104 796369.44
 -12596.855 -65032.393 797252.85
 12596.703 -65032.409 797252.85
 36861.848 -66610.154 796369.44
 58158.160 -69703.064 794832.76
 74050.664 -74050.762 793116.00
 82142.460 -78418.684 791898.43
 -76672.980 -60842.762 793989.55
 -69703.066 -58158.163 794832.76
 -55241.868 -55241.769 796176.29
 -35221.838 -53051.087 797461.60
 -12069.206 -51904.520 798223.19
 12069.086 -51904.542 798223.19
 35221.726 -53051.145 797461.60
 55241.769 -55241.865 796176.29
 69702.986 -58158.281 794832.75
 76672.915 -60842.897 793989.55
 -72953.185 -38319.125 795744.61
 -66610.158 -36861.848 796369.44
 -53051.148 -35221.728 797461.60
 -33945.396 -33945.323 798558.34
 -11652.199 -33262.813 799223.26
 11652.122 -33262.834 799223.26
 33945.322 -33945.393 798558.34
 53051.086 -35221.835 797461.60
 66610.104 -36861.987 796369.44
 72953.143 -38319.281 795744.60
 -71081.501 -13061.093 796728.83
 -65032.411 -12596.704 797252.85
 -51904.546 -12069.086 798223.19
 -33262.838 -11652.122 799223.26
 -11426.745 -11426.715 799836.77
 11426.715 -11426.742 799836.77
 33262.812 -11652.195 799223.26
 51904.520 -12069.203 798223.19
 65032.392 -12596.852 797252.85
 71081.483 -13061.261 796728.83
 -71081.486 13061.264 796728.83
 -65032.396 12596.855 797252.85
 -51904.522 12069.205 798223.19
 -33262.816 11652.198 799223.25
 -11426.719 11426.744 799836.77
 11426.741 11426.719 799836.77
 33262.834 11652.124 799223.26
 51904.542 12069.089 798223.19
 65032.408 12596.706 797252.85
 71081.497 13061.096 796728.83
 -72953.147 38319.284 795744.60
 -66610.108 36861.990 796369.44
 -53051.090 35221.839 797461.60
 -33945.325 33945.395 798558.34
 -11652.126 33262.838 799223.26
 11652.196 33262.815 799223.26
 33945.392 33945.325 798558.34
 53051.145 35221.730 797461.60
 66610.154 36861.851 796369.44
 72953.183 38319.127 795744.61
 -76672.919 60842.900 793989.55
 -69702.990 58158.285 794832.75
 -55241.773 55241.866 796176.29
 -35221.731 53051.149 797461.60
 -12069.088 51904.545 798223.19
 12069.201 51904.522 798223.19
 35221.835 53051.089 797461.60
 55241.865 55241.772 796176.29
 69703.063 58158.163 794832.76
 76672.978 60842.764 793989.55
 -82142.464 78418.688 791898.43
 -74050.669 74050.764 793116.00
 -58158.164 69703.068 794832.76
 -36861.852 66610.157 796369.44
 -12596.708 65032.411 797252.85
 12596.853 65032.396 797252.85
 36861.987 66610.106 796369.44
 58158.281 69702.990 794832.75
 74050.763 74050.667 793116.00
 82142.538 78418.578 791898.43
 -88448.292 88448.376 790160.61
 -78418.579 82142.541 791898.43
 -60842.765 76672.979 793989.55
 -38319.128 72953.186 795744.61
 -13061.096 71081.500 796728.83
 13061.261 71081.486 796728.83
 38319.281 72953.146 795744.60
 60842.897 76672.918 793989.55
 78418.685 82142.463 791898.43
 88448.374 88448.290 790160.61
 -153279.09 -153279.00 770072.12
 -136761.52 -146090.90 774566.81
 -106649.52 -140567.50 780299.08
 -67406.098 -136987.02 785296.74
 -23019.169 -135199.00 788156.93
 23018.978 -135199.02 788156.93
 67405.921 -136987.06 785296.75
 106649.37 -140567.57 780299.09
 136761.40 -146090.98 774566.81
 153278.99 -153279.08 770072.12
 -146090.98 -136761.40 774566.81
 -132357.37 -132357.26 777793.73
 -104323.60 -128324.13 782719.30
 -66291.793 -125545.44 787301.56
 -22686.944 -124130.18 789985.44
 22686.771 -124130.20 789985.45
 66291.633 -125545.49 787301.56
 104323.46 -128324.21 782719.31
 132357.26 -132357.37 777793.73
 146090.90 -136761.52 774566.81
 -140567.57 -106649.37 780299.09
 -128324.22 -104323.46 782719.30
 -101924.26 -101924.16 786907.18
 -65085.320 -100122.51 791036.90
 -22323.763 -99164.075 793516.31
 22323.625 -99164.097 793516.31
 65085.190 -100122.58 791036.91
 101924.15 -101924.26 786907.18
 128324.13 -104323.60 782719.30
 140567.50 -106649.52 780299.08
 -136987.07 -67405.922 785296.75
 -125545.50 -66291.635 787301.56
 -100122.59 -65085.192 791036.91
 -64116.878 -64116.794 794844.68
 -22022.187 -63579.485 797165.40
 22022.094 -63579.514 797165.40
 64116.793 -64116.872 794844.68
 100122.51 -65085.315 791036.90
 125545.44 -66291.788 787301.56
 136987.02 -67406.093 785296.74
 -135199.02 -23018.980 788156.93
 -124130.21 -22686.772 789985.44
 -99164.102 -22323.626 793516.31
 -63579.520 -22022.096 797165.40
 -21850.724 -21850.689 799402.96
 21850.688 -21850.718 799402.96
 63579.484 -22022.182 797165.40
 99164.074 -22323.757 793516.31
 124130.18 -22686.939 789985.44
 135199.00 -23019.164 788156.93
 -135199.01 23019.169 788156.93
 -124130.18 22686.943 789985.44
 -99164.081 22323.762 793516.31
 -63579.490 22022.186 797165.40
 -21850.696 21850.723 799402.96
 21850.717 21850.694 799402.96
 63579.512 22022.101 797165.40
 99164.096 22323.630 793516.31
 124130.20 22686.777 789985.45
 135199.02 23018.983 788156.93
 -136987.02 67406.097 785296.74
 -125545.44 66291.794 787301.56
 -100122.52 65085.319 791036.90
 -64116.800 64116.877 794844.68
 -22022.101 63579.519 797165.40
 22022.179 63579.489 797165.40
 64116.872 64116.798 794844.68
 100122.58 65085.196 791036.91
 125545.49 66291.638 787301.56
 136987.06 67405.926 785296.75
 -140567.51 106649.52 780299.08
 -128324.13 104323.60 782719.30
 -101924.16 101924.27 786907.18
 -65085.197 100122.58 791036.91
 -22323.632 99164.101 793516.31
 22323.757 99164.080 793516.31
 65085.314 100122.51 791036.90
 101924.26 101924.16 786907.18
 128324.21 104323.47 782719.30
 140567.57 106649.38 780299.09
 -146090.90 136761.52 774566.80
 -132357.27 132357.37 777793.73
 -104323.47 128324.22 782719.30
 -66291.640 125545.50 787301.56
 -22686.777 124130.20 789985.44
 22686.937 124130.18 789985.44
 66291.788 125545.44 787301.56
 104323.60 128324.13 782719.30
 132357.37 132357.26 777793.73
 146090.98 136761.41 774566.81
 -153279.00 153279.09 770072.12
 -136761.41 146090.98 774566.81
 -106649.38 140567.57 780299.09
 -67405.927 136987.07 785296.75
 -23018.985 135199.02 788156.93
 23019.164 135199.01 788156.93
 67406.093 136987.02 785296.74
 106649.52 140567.50 780299.08
 136761.52 146090.90 774566.81
 153279.08 153279.00 770072.12
 -218924.30 -218924.20 737661.41
 -195799.55 -216149.41 744944.27
 -152994.70 -215469.69 755093.00
 -96952.747 -215418.72 764326.46
 -33173.349 -215437.91 769731.15
 33173.137 -215437.92 769731.15
 96952.552 -215418.77 764326.47
 152994.53 -215469.76 755093.01
 195799.42 -216149.50 744944.28
 218924.19 -218924.29 737661.41
 -216149.50 -195799.43 744944.28
 -195961.17 -195961.05 750465.51
 -154543.48 -196731.21 759877.06
 -98411.472 -197456.50 768977.32
 -33741.671 -197843.06 774415.66
 33741.475 -197843.09 774415.67
 98411.291 -197456.57 768977.32
 154543.32 -196731.31 759877.06
 195961.05 -195961.16 750465.52
 216149.40 -195799.55 744944.27
 -215469.77 -152994.54 755093.01
 -196731.31 -154543.33 759877.06
 -156228.73 -156228.60 768885.69
 -99943.562 -157427.53 777963.92
 -34342.523 -158020.24 783485.92
 34342.360 -158020.27 783485.93
 99943.412 -157427.61 777963.92
 156228.60 -156228.72 768885.70
 196731.21 -154543.47 759877.06
 215469.69 -152994.69 755093.00
 -215418.78 -96952.554 764326.47
 -197456.57 -98411.293 768977.32
 -157427.62 -99943.414 777963.92
 -101000.77 -101000.67 787145.29
 -34756.691 -101514.65 792771.56
 34756.580 -101514.68 792771.56
 101000.67 -101000.76 787145.29
 157427.53 -99943.554 777963.92
 197456.50 -98411.466 768977.32
 215418.72 -96952.740 764326.46
 -215437.93 -33173.138 769731.15
 -197843.09 -33741.477 774415.67
 -158020.28 -34342.362 783485.92
 -101514.69 -34756.581 792771.56
 -34957.408 -34957.363 798471.02
 34957.361 -34957.399 798471.02
 101514.65 -34756.682 792771.56
 158020.24 -34342.515 783485.92
 197843.06 -33741.663 774415.67
 215437.91 -33173.342 769731.15
 -215437.91 33173.347 769731.14
 -197843.07 33741.670 774415.66
 -158020.25 34342.521 783485.92
 -101514.66 34756.689 792771.56
 -34957.372 34957.407 798471.02
 34957.396 34957.370 798471.02
 101514.68 34756.589 792771.56
 158020.27 34342.369 783485.93
 197843.09 33741.482 774415.67
 215437.92 33173.144 769731.15
 -215418.73 96952.747 764326.46
 -197456.51 98411.471 768977.31
 -157427.54 99943.561 777963.92
 -101000.68 101000.77 787145.29
 -34756.591 101514.69 792771.56
 34756.681 101514.66 792771.56
 101000.76 101000.68 787145.29
 157427.61 99943.419 777963.92
 197456.57 98411.299 768977.32
 215418.77 96952.558 764326.47
 -215469.69 152994.70 755093.00
 -196731.22 154543.48 759877.06
 -156228.61 156228.72 768885.69
 -99943.421 157427.62 777963.92
 -34342.370 158020.28 783485.92
 34342.513 158020.25 783485.92
 99943.553 157427.54 777963.92
 156228.72 156228.60 768885.69
 196731.31 154543.33 759877.06
 215469.76 152994.54 755093.01
 -216149.41 195799.55 744944.27
 -195961.05 195961.17 750465.51
 -154543.33 196731.32 759877.06
 -98411.300 197456.57 768977.32
 -33741.484 197843.09 774415.67
 33741.662 197843.07 774415.66
 98411.464 197456.51 768977.32
 154543.47 196731.22 759877.06
 195961.16 195961.05 750465.51
 216149.50 195799.43 744944.28
 -218924.20 218924.30 737661.40
 -195799.43 216149.50 744944.28
 -152994.54 215469.77 755093.01
 -96952.560 215418.78 764326.47
 -33173.145 215437.93 769731.15
 33173.340 215437.91 769731.15
 96952.740 215418.73 764326.46
 152994.69 215469.69 755093.00
 195799.55 216149.41 744944.27
 218924.29 218924.20 737661.41
 -271668.84 -271668.74 701706.59
 -239892.16 -278170.38 710684.88
 -186487.50 -284860.66 723931.50
 -118183.70 -289810.04 736235.53
 -40484.346 -292401.81 743547.04
 40484.120 -292401.83 743547.04
 118183.49 -289810.09 736235.54
 186487.32 -284860.74 723931.51