# OOMMF OVF 2.0
#
# Segment count: 1
#
# Begin: Segment
# Begin: Header
#
# Title: Oxs_MinDriver::Magnetization
# Desc: Oxs vector field output
# Desc:  MIF source file: /home/ryan/Git/joommf/tools/omfvis/cube_example.mif
# Desc:  Iteration: 2643, State id: 5440
# Desc:  Stage: 5, Stage iteration: 81
# Desc:  Stage simulation time: 0 s
# Desc:  Total simulation time: -2 s
# meshunit: m
# meshtype: rectangular
# xbase: 2.5000000000000001e-09
# ybase: 2.5000000000000001e-09
# zbase: 2.5000000000000001e-09
# xnodes: 10
# ynodes: 10
# znodes: 10
# xstepsize: 5.0000000000000001e-09
# ystepsize: 5.0000000000000001e-09
# zstepsize: 5.0000000000000001e-09
# xmin: 0
# ymin: 0
# zmin: 0
# xmax: 4.9999999999999998e-08
# ymax: 4.9999999999999998e-08
# zmax: 4.9999999999999998e-08
# valuedim: 3
# valuelabels: Magnetization_x Magnetization_y Magnetization_z
# valueunits: A/m A/m A/m
#
# End: Header
#
# Begin: Data Text
 662651.15 -272100.51 356166.76
 704580.18 -219880.93 308575.99
 739475.98 -130935.51 275737.50
 753977.51 -17882.813 266829.75
 742301.41 111493.13 276690.99
 699895.54 249658.53 296339.08
 623894.23 386396.40 318518.15
 515488.08 509639.32 338437.29
 386225.98 605873.38 351776.83
 272100.45 662651.35 356166.44
 605873.18 -386226.06 351777.09
 658614.37 -323460.21 318748.48
 708213.53 -217007.58 302227.26
 734688.78 -76263.546 307272.29
 725859.78 91147.525 323758.72
 673670.22 269636.35 336845.18
 579575.14 435267.83 338577.28
 455677.21 568263.41 330809.57
 323460.11 658614.57 318748.19
 219880.86 704580.35 308575.67
 509639.10 -515488.17 338437.49
 568263.17 -455677.34 330809.81
 632353.05 -343248.23 349728.85
 674910.48 -175320.64 392120.53
 670748.50 46260.966 433539.35
 602508.84 288615.33 440095.77
 482148.23 494219.68 404079.19
 343248.05 632353.31 349728.56
 217007.46 708213.70 302226.94
 130935.44 739476.11 275737.17
 386396.15 -623894.32 318518.28
 435267.53 -579575.28 338577.44
 494219.31 -482148.42 404079.41
 537427.05 -306397.95 507240.05
 529191.45 -31945.389 599112.59
 442442.11 288370.00 600905.75
 306397.71 537427.48 507239.74
 175320.46 674910.73 392120.18
 76263.440 734688.94 307271.95
 17882.762 753977.63 266829.42
 249658.26 -699895.61 296339.14
 269636.00 -673670.32 336845.25
 288614.86 -602509.00 440095.86
 288369.38 -442442.33 600905.89
 242172.41 -141467.67 749225.88
 141467.42 242173.15 749225.69
 31945.190 529191.92 599112.19
 -46261.086 670748.75 433538.95
 -91147.579 725859.93 323758.37
 -111493.14 742301.52 276690.67
 111492.86 -742301.45 276690.98
 91147.169 -725859.83 323758.70
 46260.482 -670748.57 433539.29
 -31946.027 -529191.56 599112.46
 -141468.42 -242172.59 749225.68
 -242173.34 141468.18 749225.49
 -288370.08 442442.60 600905.35
 -288615.35 602509.11 440095.38
 -269636.34 673670.39 336844.84
 -249658.50 699895.68 296338.77
 -17883.084 -753977.53 266829.69
 -76263.875 -734688.79 307272.20
 -175321.05 -674910.47 392120.37
 -306398.42 -537427.05 507239.76
 -442442.82 -288369.46 600905.49
 -529192.03 31945.828 599112.06
 -537427.48 306398.18 507239.45
 -494219.63 482148.54 404078.89
 -435267.76 579575.36 338576.99
 -386396.33 623894.41 318517.88
 -130935.78 -739475.97 275737.39
 -217007.88 -708213.49 302227.12
 -343248.55 -632353.00 349728.64
 -482148.73 -494219.26 404079.10
 -602509.27 -288614.88 440095.48
 -670748.82 -46260.601 433538.89
 -674910.72 175320.87 392120.02
 -632353.25 343248.37 349728.36
 -568263.33 455677.47 330809.35
 -509639.23 515488.32 338437.06
 -219881.21 -704580.16 308575.86
 -323460.50 -658614.32 318748.32
 -455677.60 -568263.09 330809.58
 -579575.50 -435267.46 338577.15
 -673670.50 -269635.99 336844.91
 -725859.98 -91147.221 323758.35
 -734688.94 76263.769 307271.86
 -708213.66 217007.76 302226.80
 -658614.51 323460.39 318748.02
 -605873.31 386226.27 351776.64
 -272100.82 -662651.12 356166.60
 -386226.34 -605873.11 351776.91
 -515488.41 -509639.01 338437.26
 -623894.51 -386396.08 318518.00
 -699895.76 -249658.23 296338.83
 -742301.57 -111492.87 276690.66
 -753977.65 17883.034 266829.36
 -739476.11 130935.71 275737.06
 -704580.32 219881.14 308575.53
 -662651.31 272100.76 356166.29
 634842.63 -304820.07 379551.78
 681553.25 -249459.48 336534.01
 722904.99 -160498.87 302735.02
 743800.69 -50524.455 290185.82
 739594.90 74062.536 295827.85
 706546.74 208058.58 312255.25
 640897.01 343756.65 333290.25
 541490.41 470240.57 354488.28
 417402.38 572744.14 371132.59
 304820.04 634842.86 379551.42
 572743.91 -417402.42 371132.91
 629994.16 -350436.83 346844.89
 685032.27 -243954.28 333492.27
 716988.62 -107076.50 338322.25
 715813.95 54189.727 353091.86
 674561.83 227741.49 364828.93
 592392.53 393541.82 366327.62
 477720.55 532027.08 358790.01
 350436.77 629994.38 346844.56
 249459.43 681553.45 336533.64
 470240.33 -541490.45 354488.53
 532026.82 -477720.63 358790.28
 598743.60 -364956.01 385114.54
 643867.12 -201325.99 430003.46
 647092.60 10857.990 470269.36
 594433.20 244386.46 476365.86
 491905.06 451082.35 441082.90
 364955.89 598743.88 385114.23
 243954.19 685032.48 333491.92
 160498.81 722905.15 302734.65
 343756.40 -640897.05 333290.42
 393541.52 -592392.61 366327.82
 451081.98 -491905.19 441083.14
 492226.67 -317517.72 544881.09
 490393.71 -57033.347 629492.82
 426827.43 243740.34 631196.48
 317517.57 492227.10 544880.79
 201325.86 643867.40 430003.10
 107076.42 716988.80 338321.88
 50524.412 743800.84 290185.45
 208058.32 -706546.77 312255.34
 227741.16 -674561.88 364829.04
 244386.02 -594433.29 476365.97
 243739.77 -426827.55 631196.62
 210149.51 -139903.20 759120.73
 139903.07 210150.18 759120.57
 57033.224 490394.18 629492.46
 -10858.075 647092.89 470268.96
 -54189.769 715814.13 353091.49
 -74062.549 739595.04 295827.50
 74062.284 -739594.92 295827.88
 54189.400 -715813.97 353091.88
 10857.546 -647092.63 470269.33
 -57033.917 -490393.76 629492.73
 -139903.87 -210149.61 759120.58
 -210150.27 139903.74 759120.42
 -243740.38 426827.90 631196.14
 -244386.47 594433.50 476365.48
 -227741.48 674562.02 364828.59
 -208058.55 706546.89 312254.92
 -50524.699 -743800.69 290185.79
 -107076.81 -716988.60 338322.19
 -201326.36 -643867.09 430003.33
 -317518.17 -492226.65 544880.85
 -426828.03 -243739.81 631196.28
 -490394.23 57033.795 629492.37
 -492227.08 317518.01 544880.55
 -451082.30 491905.37 441082.61
 -393541.75 592392.75 366327.33
 -343756.58 640897.19 333289.96
 -160499.11 -722904.96 302734.95
 -243954.55 -685032.23 333492.16
 -364956.32 -598743.54 385114.35
 -491905.49 -451081.93 441082.85
 -594433.58 -244386.02 476365.60
 -647092.91 -10857.629 470268.94
 -643867.37 201326.24 430002.97
 -598743.81 364956.20 385114.04
 -532027.00 477720.80 358789.78
 -470240.49 541490.64 354488.04
 -249459.73 -681553.21 336533.89
 -350437.10 -629994.10 346844.74
 -477720.88 -532026.74 358790.06
 -592392.83 -393541.45 366327.53
 -674562.08 -227741.14 364828.70
 -715814.15 -54189.443 353091.51
 -716988.78 107076.73 338321.83
 -685032.43 243954.46 333491.80
 -629994.32 350437.03 346844.40
 -572744.07 417402.65 371132.40
 -304820.35 -634842.58 379551.64
 -417402.68 -572743.84 371132.72
 -541490.68 -470240.25 354488.29
 -640897.24 -343756.34 333290.14
 -706546.92 -208058.30 312255.02
 -739595.06 -74062.296 295827.54
 -743800.83 50524.657 290185.43
 -722905.13 160499.06 302734.58
 -681553.41 249459.69 336533.52
 -634842.82 304820.33 379551.27
 594964.76 -351104.45 403413.69
 648946.40 -291411.71 365988.78
 699090.46 -199756.74 333721.09
 728279.41 -90221.403 318542.31
 732755.09 31000.684 319544.88
 710167.23 160450.59 331539.01
 656942.73 293133.78 349998.33
 570471.94 420289.75 371373.53
 457237.38 527341.41 390953.98
 351104.49 594965.02 403413.26
 527341.16 -457237.35 390954.36
 589848.75 -388010.24 376200.09
 652434.79 -280266.17 368482.99
 692315.86 -145225.66 373641.88
 700824.73 10680.307 385656.10
 672720.99 178011.27 394662.46
 606044.54 341498.66 395080.59
 505581.16 483830.19 387680.33
 388010.24 589848.99 376199.71
 291411.72 648946.63 365988.36
 420289.51 -570471.91 371373.84
 483829.92 -505581.16 387680.66
 554338.94 -392064.47 423076.58
 604620.57 -231263.82 470054.26
 617680.95 -28225.272 507615.58
 582777.88 194338.81 512447.43
 501830.58 398625.06 478815.34
 392064.43 554339.23 423076.23
 280266.14 652435.03 368482.60
 199756.73 699090.66 333720.68
 293133.55 -656942.71 349998.56
 341498.38 -606044.54 395080.84
 398624.71 -501830.60 478815.61
 441317.96 -328098.28 581024.94
 449283.66 -81640.652 656870.61
 409218.31 198181.47 658228.29
 328098.24 441318.37 581024.65
 231263.77 604620.87 470053.90
 145225.63 692316.08 373641.49
 90221.389 728279.58 318541.92
 160450.36 -710167.20 331539.17
 178010.97 -672720.98 394662.62
 194338.42 -582777.88 512447.58
 198180.98 -409218.32 658228.43
 180290.76 -137973.75 767110.48
 137973.74 180291.32 767110.35
 81640.634 449284.10 656870.31
 28225.257 617681.26 507615.21
 -10680.315 700824.94 385655.73
 -31000.678 732755.25 319544.51
 31000.465 -732755.06 319544.97
 10680.022 -700824.69 385656.17
 -28225.654 -617680.91 507615.60
 -81641.141 -449283.62 656870.57
 -137974.30 -180290.74 767110.38
 -180291.31 137974.30 767110.25
 -198181.44 409218.75 658228.02
 -194338.78 582778.18 512447.10
 -178011.23 672721.20 394662.12
 -160450.55 710167.39 331538.68
 -90221.616 -728279.37 318542.34
 -145225.93 -692315.81 373641.87
 -231264.16 -604620.50 470054.19
 -328098.67 -441317.90 581024.76
 -409218.76 -198180.95 658228.17
 -449284.06 81641.122 656870.27
 -441318.31 328098.64 581024.47
 -398624.99 501830.87 478815.09
 -341498.59 606044.76 395080.31
 -293133.72 656942.92 349998.04
 -199756.96 -699090.42 333721.06
 -280266.41 -652434.73 368482.92
 -392064.74 -554338.86 423076.43
 -501830.90 -398624.64 478815.36
 -582778.18 -194338.39 512447.25
 -617681.22 28225.639 507615.23
 -604620.80 231264.11 470053.82
 -554339.15 392064.71 423076.08
 -483830.10 505581.39 387680.14
 -420289.66 570472.15 371373.30
 -291411.94 -648946.34 365988.70
 -388010.47 -589848.67 376199.97
 -505581.40 -483829.84 387680.46
 -606044.76 -341498.31 395080.57
 -672721.18 -178010.94 394662.28
 -700824.90 -10680.028 385655.80
 -692316.03 145225.90 373641.48
 -652434.96 280266.39 368482.53
 -589848.91 388010.48 376199.58
 -527341.33 457237.62 390953.81
 -351104.71 -594964.69 403413.57
 -457237.59 -527341.08 390954.19
 -570472.12 -420289.43 371373.61
 -656942.89 -293133.49 349998.28
 -710167.37 -160450.33 331538.84
 -732755.22 -31000.459 319544.61
 -728279.54 90221.604 318541.94
 -699090.61 199756.95 333720.65
 -648946.57 291411.95 365988.28
 -594964.95 351104.75 403413.14
 548703.74 -400938.34 422105.02
 612016.06 -336652.20 390002.10
 672616.18 -240568.25 360158.83
 711061.32 -128872.64 343196.21
 724184.33 -8708.1112 339825.29
 711231.20 117095.25 347043.05
 669750.82 245529.62 362145.06
 596958.52 370201.01 382873.00
 497349.13 478068.20 405085.96
 400938.46 548704.02 422104.55
 478067.96 -497349.01 405086.39
 546822.36 -427038.86 398275.18
 618375.86 -317283.74 396159.46
 667511.42 -181663.23 401779.76
 685916.55 -28512.193 410737.80
 669952.68 133622.89 416303.17
 617936.22 293106.47 415022.19
 532550.38 435823.58 407980.27
 427038.94 546822.61 398274.75
 336652.28 612016.31 390001.63
 370200.80 -596958.42 382873.37
 435823.34 -532550.30 407980.63
 511520.38 -418479.79 450801.02
 569068.37 -258723.34 499222.82
 592557.58 -61650.284 533923.92
 573202.48 152031.03 536959.48
 511254.76 351947.65 504729.06
 418479.85 511520.65 450800.66
 317283.79 618376.10 396159.05
 240568.30 672616.40 360158.40
 245529.43 -669750.73 362145.36
 293106.23 -617936.14 415022.49
 351947.34 -511254.68 504729.36
 399564.48 -338005.83 605062.22
 418212.96 -101431.90 674395.65
 396827.89 163006.80 675245.44
 338005.91 399564.84 605061.94
 258723.40 569068.66 499222.46
 181663.26 667511.65 401779.37
 128872.67 711061.51 343195.81
 117095.07 -711231.12 347043.27
 133622.64 -669952.59 416303.39
 152030.71 -573202.38 536959.68
 163006.39 -396827.78 675245.61
 159289.74 -137433.62 771841.16
 137433.74 159290.19 771841.05
 101431.99 418213.35 674395.39
 61650.351 592557.87 533923.59
 28512.243 685916.77 410737.44
 8708.1525 724184.50 339824.93
 -8708.2913 -724184.25 339825.45
 -28512.427 -685916.46 410737.93
 -61650.601 -592557.47 533924.01
 -101432.29 -418212.83 674395.67
 -137434.07 -159289.61 771841.11
 -159290.07 137434.19 771840.99
 -163006.68 396828.27 675245.25
 -152030.94 573202.76 536959.20
 -133622.81 669952.89 416302.86
 -117095.19 711231.37 347042.73
 -128872.82 -711061.25 343196.30
 -181663.45 -667511.33 401779.82
 -258723.62 -569068.26 499222.80
 -338006.17 -399564.35 605062.11
 -396828.16 -163006.28 675245.41
 -418213.22 101432.39 674395.41
 -399564.71 338006.25 605061.83
 -351947.53 511255.03 504728.87
 -293106.37 617936.43 415021.96
 -245529.54 669750.99 362144.80
 -240568.44 -672616.10 360158.86
 -317283.95 -618375.76 396159.44
 -418480.04 -511520.27 450800.93
 -511254.94 -351947.23 504729.17
 -573202.67 -152030.61 536959.40
 -592557.76 61650.665 533923.68
 -569068.54 258723.68 499222.44
 -511520.54 418480.10 450800.56
 -435823.47 532550.59 407980.11
 -370200.91 596958.71 382872.81
 -336652.40 -612015.98 390002.06
 -427039.07 -546822.26 398275.10
 -532550.51 -435823.23 407980.48
 -617936.35 -293106.13 415022.25
 -669952.80 -133622.57 416303.08
 -685916.67 28512.478 410737.58
 -667511.55 181663.49 401779.42
 -618376.00 317284.01 396159.03
 -546822.50 427039.15 398274.67
 -478068.09 497349.34 405085.83
 -400938.56 -548703.64 422104.95
 -497349.22 -478067.85 405086.27
 -596958.60 -370200.70 382873.18
 -669750.90 -245529.35 362145.10
 -711231.29 -117095.01 347042.96
 -724184.42 8708.3333 339825.09
 -711061.43 128872.85 343195.90
 -672616.32 240568.48 360158.43
 -612016.22 336652.48 390001.60
 -548703.91 400938.68 422104.47
 500005.37 -450702.25 432275.51
 573969.33 -382489.56 405291.18
 646462.78 -281424.28 378002.97
 695116.76 -165810.29 359610.41
 716952.69 -44489.107 352135.72
 712748.98 79324.332 354537.07
 681645.30 203621.78 365920.57
 621597.18 323952.69 385579.55
 535962.70 429383.22 410334.04
 450702.44 500005.62 432275.02
 429383.01 -535962.52 410334.51
 505139.09 -465642.07 409892.62
 586935.80 -353940.60 412592.32
 646548.33 -216092.37 418663.76
 675031.48 -62914.554 424704.91
 669886.64 96353.542 426576.94
 630477.91 251927.72 423119.40
 558870.30 392600.97 416567.48
 465642.23 505139.31 409892.17
 382489.71 573969.57 405290.71
 323952.52 -621597.02 385579.97
 392600.77 -558870.14 416567.88
 475158.91 -445081.58 464893.96
 541955.66 -285164.88 514747.57
 576364.92 -90264.455 547408.27
 570214.32 118634.63 548435.46
 523453.30 314814.61 516612.43
 445081.73 475159.14 464893.59
 353940.73 586936.01 412591.91
 281424.39 646462.99 378002.53
 203621.63 -681645.15 365920.92
 251927.53 -630477.76 423119.74
 314814.38 -523453.13 516612.75
 369994.92 -350660.54 616555.72
 399722.11 -118781.58 682724.82
 393066.03 137821.29 683011.27
 350660.72 369995.20 616555.44
 285165.04 541955.90 514747.23
 216092.48 646548.54 418663.38
 165810.38 695116.94 359610.02
 79324.193 -712748.86 354537.36
 96353.363 -669886.49 426577.22
 118634.38 -570214.14 548435.70
 137820.98 -393065.81 683011.45
 146449.27 -139764.42 773962.87
 139764.65 146449.61 773962.76
 118781.79 399722.42 682724.60
 90264.609 576365.17 547407.98
 62914.669 675031.67 424704.59
 44489.196 716952.84 352135.39
 -44489.246 -716952.57 352135.94
 -62914.735 -675031.33 424705.11
 -90264.694 -576364.73 547408.42
 -118781.89 -399721.89 682724.89
 -139764.76 -146449.03 773962.85
 -146449.38 139765.00 773962.74
 -137821.08 393066.33 683011.13
 -118634.46 570214.56 548435.24
 -96353.417 669886.82 426576.68
 -79324.234 712749.13 354536.79
 -165810.43 -695116.64 359610.56
 -216092.55 -646548.19 418663.88
 -285165.12 -541955.48 514747.62
 -350660.81 -369994.72 616555.68
 -393066.12 -137820.77 683011.32
 -399722.19 118782.09 682724.68
 -369995.00 350661.00 616555.40
 -314814.44 523453.53 516612.30
 -251927.58 630478.10 423119.21
 -203621.67 681645.44 365920.35
 -281424.43 -646462.67 378003.06
 -353940.78 -586935.66 412592.36
 -445081.78 -475158.75 464893.93
 -523453.36 -314814.20 516612.62
 -570214.38 -118634.22 548435.49
 -576364.98 90264.855 547408.13
 -541955.72 285165.26 514747.28
 -475158.97 445081.94 464893.55
 -392600.83 558870.48 416567.37
 -323952.57 621597.34 385579.41
 -382489.73 -573969.20 405291.20
 -465642.25 -505138.96 409892.59
 -558870.32 -392600.63 416567.77
 -630477.94 -251927.40 423119.55
 -669886.67 -96353.235 426576.96
 -675031.53 62914.848 424704.79
 -646548.39 216092.67 418663.51
 -586935.87 353940.91 412591.95
 -505139.17 465642.41 409892.14
 -429383.09 535962.87 410333.97
 -450702.43 -500005.23 432275.49
 -535962.69 -429382.88 410334.43
 -621597.17 -323952.40 385579.82
 -681645.30 -203621.52 365920.70
 -712749.00 -79324.096 354537.08
 -716952.73 44489.335 352135.61
 -695116.82 165810.52 359610.17
 -646462.87 281424.55 378002.62
 -573969.44 382489.88 405290.73
 -500005.48 450702.62 432274.99
 450702.43 -500005.23 432275.49
 535962.69 -429382.88 410334.43
 621597.17 -323952.40 385579.82
 681645.30 -203621.52 365920.70
 712749.00 -79324.096 354537.08
 716952.73 44489.335 352135.61
 695116.82 165810.52 359610.17
 646462.87 281424.55 378002.62
 573969.44 382489.88 405290.73
 500005.48 450702.62 432274.99
 382489.73 -573969.20 405291.20
 465642.25 -505138.95 409892.59
 558870.32 -392600.63 416567.77
 630477.94 -251927.40 423119.55
 669886.67 -96353.237 426576.96
 675031.53 62914.849 424704.79
 646548.39 216092.67 418663.51
 586935.87 353940.91 412591.95
 505139.17 465642.41 409892.14
 429383.09 535962.87 410333.97
 281424.43 -646462.67 378003.06
 353940.78 -586935.66 412592.36
 445081.79 -475158.75 464893.93
 523453.36 -314814.20 516612.62
 570214.38 -118634.22 548435.49
 576364.98 90264.852 547408.13
 541955.72 285165.27 514747.28
 475158.97 445081.94 464893.55
 392600.83 558870.48 416567.37
 323952.57 621597.34 385579.41
 165810.43 -695116.64 359610.56
 216092.55 -646548.19 418663.88
 285165.11 -541955.48 514747.62
 350660.81 -369994.71 616555.68
 393066.12 -137820.77 683011.32
 399722.19 118782.09 682724.68
 369995.00 350661.00 616555.40
 314814.44 523453.53 516612.30
 251927.58 630478.09 423119.21
 203621.67 681645.45 365920.35
 44489.246 -716952.57 352135.94
 62914.734 -675031.33 424705.11
 90264.697 -576364.73 547408.42
 118781.89 -399721.89 682724.89
 139764.76 -146449.03 773962.85
 146449.38 139765.00 773962.74
 137821.08 393066.33 683011.13
 118634.46 570214.56 548435.24
 96353.416 669886.82 426576.68
 79324.234 712749.13 354536.79
 -79324.193 -712748.86 354537.36
 -96353.362 -669886.49 426577.22
 -118634.39 -570214.13 548435.71
 -137820.98 -393065.81 683011.45
 -146449.27 -139764.41 773962.87
 -139764.65 146449.61 773962.76
 -118781.79 399722.42 682724.60
 -90264.611 576365.17 547407.98
 -62914.668 675031.67 424704.59
 -44489.196 716952.84 352135.39
 -203621.63 -681645.15 365920.92
 -251927.53 -630477.76 423119.74
 -314814.37 -523453.13 516612.75
 -369994.92 -350660.53 616555.71
 -399722.10 -118781.59 682724.82
 -393066.03 137821.29 683011.27
 -350660.72 369995.20 616555.44
 -285165.03 541955.90 514747.22
 -216092.49 646548.53 418663.39
 -165810.38 695116.94 359610.02
 -323952.52 -621597.02 385579.97
 -392600.77 -558870.14 416567.88
 -475158.91 -445081.58 464893.96
 -541955.65 -285164.89 514747.57
 -576364.92 -90264.451 547408.27
 -570214.32 118634.63 548435.46
 -523453.30 314814.61 516612.43
 -445081.73 475159.13 464893.59
 -353940.72 586936.01 412591.90
 -281424.39 646462.99 378002.53
 -429383.01 -535962.52 410334.51
 -505139.09 -465642.07 409892.62
 -586935.80 -353940.60 412592.32
 -646548.33 -216092.37 418663.76
 -675031.48 -62914.556 424704.91
 -669886.64 96353.543 426576.94
 -630477.91 251927.72 423119.40
 -558870.30 392600.97 416567.48
 -465642.23 505139.31 409892.17
 -382489.71 573969.57 405290.71
 -500005.37 -450702.25 432275.51
 -573969.33 -382489.56 405291.18
 -646462.78 -281424.28 378002.97
 -695116.76 -165810.29 359610.41
 -716952.69 -44489.107 352135.72
 -712748.98 79324.332 354537.07
 -681645.30 203621.78 365920.57
 -621597.18 323952.69 385579.55
 -535962.70 429383.22 410334.05
 -450702.44 500005.62 432275.02
 400938.56 -548703.64 422104.95
 497349.22 -478067.85 405086.27
 596958.60 -370200.70 382873.18
 669750.90 -245529.35 362145.10
 711231.29 -117095.01 347042.96
 724184.42 8708.3334 339825.09
 711061.43 128872.85 343195.90
 672616.32 240568.48 360158.43
 612016.22 336652.48 390001.60
 548703.91 400938.68 422104.47
 336652.40 -612015.98 390002.06
 427039.07 -546822.26 398275.10
 532550.51 -435823.23 407980.48
 617936.34 -293106.13 415022.25
 669952.80 -133622.57 416303.08
 685916.67 28512.477 410737.58
 667511.55 181663.49 401779.43
 618376.00 317284.01 396159.03
 546822.50 427039.15 398274.67
 478068.09 497349.34 405085.83
 240568.44 -672616.10 360158.86
 317283.96 -618375.76 396159.45
 418480.04 -511520.27 450800.93
 511254.95 -351947.23 504729.16
 573202.66 -152030.61 536959.40
 592557.76 61650.667 533923.68
 569068.54 258723.68 499222.45
 511520.54 418480.10 450800.56
 435823.47 532550.59 407980.11
 370200.91 596958.71 382872.81
 128872.82 -711061.25 343196.30
 181663.45 -667511.33 401779.81
 258723.63 -569068.25 499222.80
 338006.17 -399564.35 605062.11
 396828.16 -163006.27 675245.41
 418213.22 101432.39 674395.41
 399564.71 338006.25 605061.83
 351947.54 511255.03 504728.87
 293106.37 617936.43 415021.95
 245529.54 669750.99 362144.80
 8708.2910 -724184.25 339825.45
 28512.429 -685916.46 410737.93
 61650.597 -592557.47 533924.01
 101432.30 -418212.83 674395.67
 137434.07 -159289.61 771841.11
 159290.07 137434.19 771840.99
 163006.68 396828.27 675245.25
 152030.93 573202.77 536959.20
 133622.81 669952.89 416302.86
 117095.19 711231.37 347042.73
 -117095.07 -711231.12 347043.27
 -133622.65 -669952.59 416303.39
 -152030.71 -573202.38 536959.68
 -163006.39 -396827.78 675245.61
 -159289.74 -137433.62 771841.16
 -137433.74 159290.20 771841.05
 -101431.99 418213.35 674395.39
 -61650.350 592557.87 533923.59
 -28512.243 685916.77 410737.44
 -8708.1523 724184.50 339824.93
 -245529.43 -669750.73 362145.36
 -293106.23 -617936.14 415022.49
 -351947.35 -511254.68 504729.35
 -399564.47 -338005.83 605062.22
 -418212.96 -101431.89 674395.65
 -396827.89 163006.79 675245.44
 -338005.91 399564.84 605061.93
 -258723.40 569068.66 499222.46
 -181663.26 667511.65 401779.37
 -128872.67 711061.51 343195.81
 -370200.80 -596958.41 382873.37
 -435823.34 -532550.30 407980.63
 -511520.38 -418479.79 450801.03
 -569068.38 -258723.34 499222.81
 -592557.58 -61650.287 533923.93
 -573202.48 152031.03 536959.48
 -511254.76 351947.65 504729.06
 -418479.85 511520.66 450800.66
 -317283.79 618376.10 396159.05
 -240568.30 672616.40 360158.40
 -478067.96 -497349.01 405086.39
 -546822.36 -427038.86 398275.18
 -618375.86 -317283.74 396159.46
 -667511.42 -181663.23 401779.76
 -685916.55 -28512.191 410737.80
 -669952.68 133622.88 416303.17
 -617936.22 293106.47 415022.19
 -532550.38 435823.58 407980.27
 -427038.94 546822.61 398274.76
 -336652.28 612016.31 390001.63
 -548703.74 -400938.34 422105.02
 -612016.06 -336652.20 390002.10
 -672616.18 -240568.25 360158.83
 -711061.32 -128872.64 343196.21
 -724184.33 -8708.1113 339825.29
 -711231.20 117095.25 347043.05
 -669750.82 245529.62 362145.06
 -596958.52 370201.01 382873.00
 -497349.13 478068.20 405085.96
 -400938.46 548704.02 422104.55
 351104.71 -594964.69 403413.57
 457237.59 -527341.08 390954.19
 570472.12 -420289.43 371373.61
 656942.89 -293133.49 349998.28
 710167.37 -160450.33 331538.84
 732755.22 -31000.459 319544.61
 728279.54 90221.604 318541.95
 699090.62 199756.95 333720.65
 648946.57 291411.95 365988.28
 594964.95 351104.75 403413.14
 291411.94 -648946.34 365988.70
 388010.48 -589848.67 376199.97
 505581.40 -483829.84 387680.46
 606044.76 -341498.31 395080.57
 672721.18 -178010.94 394662.28
 700824.90 -10680.028 385655.80
 692316.03 145225.90 373641.48
 652434.96 280266.39 368482.53
 589848.92 388010.48 376199.58
 527341.33 457237.63 390953.81
 199756.96 -699090.42 333721.06
 280266.41 -652434.73 368482.92
 392064.75 -554338.86 423076.43
 501830.90 -398624.64 478815.36
 582778.18 -194338.39 512447.25
 617681.22 28225.638 507615.23
 604620.80 231264.11 470053.82
 554339.15 392064.71 423076.08
 483830.10 505581.39 387680.13
 420289.66 570472.15 371373.30
 90221.616 -728279.37 318542.34
 145225.93 -692315.81 373641.87
 231264.15 -604620.50 470054.19
 328098.67 -441317.90 581024.76
 409218.76 -198180.95 658228.17
 449284.06 81641.123 656870.27
 441318.31 328098.64 581024.47
 398624.99 501830.88 478815.09
 341498.59 606044.76 395080.32
 293133.72 656942.92 349998.04
 -31000.465 -732755.06 319544.97
 -10680.024 -700824.69 385656.17
 28225.657 -617680.91 507615.60
 81641.137 -449283.62 656870.58
 137974.30 -180290.74 767110.38
 180291.31 137974.30 767110.25
 198181.44 409218.75 658228.02
 194338.78 582778.18 512447.10
 178011.23 672721.20 394662.12
 160450.55 710167.39 331538.68
 -160450.36 -710167.20 331539.17
 -178010.97 -672720.98 394662.62
 -194338.42 -582777.87 512447.58
 -198180.97 -409218.32 658228.43
 -180290.76 -137973.74 767110.48
 -137973.74 180291.32 767110.35
 -81640.635 449284.10 656870.31
 -28225.256 617681.26 507615.21
 10680.315 700824.94 385655.73
 31000.678 732755.25 319544.51
 -293133.55 -656942.71 349998.56
 -341498.38 -606044.54 395080.84
 -398624.71 -501830.60 478815.61
 -441317.96 -328098.27 581024.94
 -449283.65 -81640.655 656870.61
 -409218.31 198181.47 658228.29
 -328098.24 441318.37 581024.65
 -231263.77 604620.87 470053.90
 -145225.63 692316.08 373641.49
 -90221.389 728279.58 318541.92
 -420289.51 -570471.91 371373.84
 -483829.92 -505581.16 387680.66
 -554338.94 -392064.47 423076.58
 -604620.57 -231263.82 470054.27
 -617680.96 -28225.270 507615.57
 -582777.88 194338.81 512447.43
 -501830.58 398625.06 478815.34
 -392064.43 554339.23 423076.23
 -280266.14 652435.03 368482.60
 -199756.73 699090.66 333720.68
 -527341.16 -457237.35 390954.36
 -589848.75 -388010.24 376200.09
 -652434.79 -280266.16 368483.00
 -692315.86 -145225.66 373641.88
 -700824.73 10680.307 385656.10
 -672720.99 178011.27 394662.46
 -606044.54 341498.66 395080.59
 -505581.16 483830.19 387680.34
 -388010.24 589848.99 376199.71
 -291411.72 648946.63 365988.36
 -594964.76 -351104.45 403413.69
 -648946.40 -291411.71 365988.78
 -699090.46 -199756.74 333721.09
 -728279.41 -90221.403 318542.31
 -732755.09 31000.684 319544.88
 -710167.23 160450.59 331539.01
 -656942.73 293133.78 349998.33
 -570471.94 420289.75 371373.53
 -457237.38 527341.41 390953.98
 -351104.49 594965.02 403413.26
 304820.35 -634842.58 379551.64
 417402.68 -572743.84 371132.72
 541490.68 -470240.25 354488.29
 640897.24 -343756.34 333290.14
 706546.92 -208058.30 312255.02
 739595.06 -74062.296 295827.54
 743800.83 50524.657 290185.43
 722905.13 160499.06 302734.58
 681553.41 249459.69 336533.52
 634842.82 304820.33 379551.27
 249459.73 -681553.21 336533.89
 350437.10 -629994.10 346844.74
 477720.88 -532026.74 358790.06
 592392.83 -393541.45 366327.53
 674562.08 -227741.14 364828.70
 715814.15 -54189.443 353091.51
 716988.78 107076.73 338321.83
 685032.43 243954.46 333491.80
 629994.32 350437.03 346844.40
 572744.07 417402.65 371132.40
 160499.11 -722904.96 302734.95
 243954.55 -685032.23 333492.16
 364956.31 -598743.54 385114.35
 491905.49 -451081.93 441082.85
 594433.58 -244386.02 476365.60
 647092.91 -10857.629 470268.94
 643867.37 201326.24 430002.97
 598743.81 364956.20 385114.04
 532027.00 477720.80 358789.78
 470240.49 541490.64 354488.04
 50524.700 -743800.69 290185.79
 107076.80 -716988.60 338322.20
 201326.37 -643867.09 430003.33
 317518.16 -492226.65 544880.85
 426828.03 -243739.81 631196.28
 490394.23 57033.794 629492.37
 492227.08 317518.02 544880.55
 451082.30 491905.37 441082.61
 393541.75 592392.75 366327.33
 343756.58 640897.19 333289.96
 -74062.285 -739594.92 295827.88
 -54189.399 -715813.97 353091.88
 -10857.548 -647092.63 470269.33
 57033.920 -490393.76 629492.73
 139903.87 -210149.61 759120.58
 210150.27 139903.74 759120.42
 243740.38 426827.90 631196.14
 244386.47 594433.50 476365.48
 227741.48 674562.02 364828.59
 208058.55 706546.89 312254.92
 -208058.32 -706546.77 312255.34
 -227741.16 -674561.88 364829.04
 -244386.01 -594433.29 476365.97
 -243739.77 -426827.55 631196.62
 -210149.51 -139903.21 759120.73
 -139903.07 210150.18 759120.57
 -57033.223 490394.18 629492.46
 10858.074 647092.89 470268.96
 54189.770 715814.13 353091.49
 74062.548 739595.04 295827.50
 -343756.40 -640897.05 333290.42
 -393541.51 -592392.61 366327.82
 -451081.98 -491905.18 441083.14
 -492226.66 -317517.73 544881.09
 -490393.71 -57033.345 629492.82
 -426827.43 243740.34 631196.48
 -317517.57 492227.10 544880.79
 -201325.86 643867.40 430003.10
 -107076.42 716988.80 338321.88
 -50524.412 743800.84 290185.45
 -470240.33 -541490.45 354488.53
 -532026.82 -477720.63 358790.28
 -598743.60 -364956.01 385114.54
 -643867.12 -201325.99 430003.46
 -647092.60 10857.988 470269.36
 -594433.20 244386.46 476365.85
 -491905.06 451082.35 441082.90
 -364955.89 598743.88 385114.23
 -243954.19 685032.48 333491.92
 -160498.81 722905.15 302734.65
 -572743.91 -417402.42 371132.91
 -629994.16 -350436.83 346844.89
 -685032.27 -243954.28 333492.27
 -716988.62 -107076.50 338322.25
 -715813.95 54189.728 353091.86
 -674561.83 227741.49 364828.93
 -592392.53 393541.82 366327.62
 -477720.55 532027.08 358790.01
 -350436.77 629994.38 346844.56
 -249459.43 681553.45 336533.64
 -634842.63 -304820.07 379551.78
 -681553.25 -249459.48 336534.01
 -722904.99 -160498.87 302735.02
 -743800.69 -50524.455 290185.82
 -739594.90 74062.536 295827.85
 -706546.73 208058.58 312255.25
 -640897.01 343756.65 333290.25
 -541490.41 470240.57 354488.28
 -417402.38 572744.14 371132.59
 -304820.04 634842.86 379551.42
 272100.82 -662651.12 356166.60
 386226.34 -605873.11 351776.91
 515488.41 -509639.01 338437.26
 623894.51 -386396.08 318518.00
 699895.76 -249658.23 296338.83
 742301.57 -111492.87 276690.66
 753977.65 17883.034 266829.36
 739476.11 130935.71 275737.06