# OOMMF OVF 2.0
#
# Segment count: 1
#
# Begin: Segment
# Begin: Header
#
# Title: Oxs_MinDriver::Magnetization
# Desc: Oxs vector field output
# Desc:  MIF source file: /home/ryan/Git/joommf/tools/omfvis/cube_example.mif
# Desc:  Iteration: 5404, State id: 11488
# Desc:  Stage: 34, Stage iteration: 33
# Desc:  Stage simulation time: 0 s
# Desc:  Total simulation time: -2 s
# meshunit: m
# meshtype: rectangular
# xbase: 2.5000000000000001e-09
# ybase: 2.5000000000000001e-09
# zbase: 2.5000000000000001e-09
# xnodes: 10
# ynodes: 10
# znodes: 10
# xstepsize: 5.0000000000000001e-09
# ystepsize: 5.0000000000000001e-09
# zstepsize: 5.0000000000000001e-09
# xmin: 0
# ymin: 0
# zmin: 0
# xmax: 4.9999999999999998e-08
# ymax: 4.9999999999999998e-08
# zmax: 4.9999999999999998e-08
# valuedim: 3
# valuelabels: Magnetization_x Magnetization_y Magnetization_z
# valueunits: A/m A/m A/m
#
# End: Header
#
# Begin: Data Text
 263780.65 263780.69 707700.16
 232117.95 270453.77 716223.44
 179778.19 277207.40 728584.83
 113599.68 282134.41 739929.24
 38851.771 284688.30 746621.13
 -38851.849 284688.29 746621.13
 -113599.75 282134.39 739929.24
 -179778.25 277207.37 728584.83
 -232117.99 270453.74 716223.44
 -263780.69 263780.65 707700.16
 270453.74 232117.99 716223.44
 240648.49 240648.54 724000.41
 187946.48 248498.94 736834.03
 119386.81 254141.19 749105.50
 40935.834 257072.18 756464.24
 -40935.908 257072.18 756464.24
 -119386.87 254141.16 749105.50
 -187946.54 248498.91 736834.03
 -240648.54 240648.49 724000.41
 -270453.77 232117.95 716223.44
 277207.37 179778.25 728584.83
 248498.91 187946.54 736834.03
 195524.75 195524.80 750693.10
 124876.02 200975.07 764208.74
 42938.768 203812.35 772409.73
 -42938.830 203812.33 772409.73
 -124876.08 200975.03 764208.74
 -195524.80 195524.75 750693.10
 -248498.94 187946.48 736834.03
 -277207.40 179778.19 728584.83
 282134.39 113599.75 739929.24
 254141.16 119386.87 749105.50
 200975.03 124876.08 764208.74
 128858.35 128858.39 778967.93
 44401.237 130939.16 787961.59
 -44401.278 130939.15 787961.59
 -128858.39 128858.35 778967.93
 -200975.07 124876.02 764208.74
 -254141.19 119386.80 749105.50
 -282134.41 113599.68 739929.24
 284688.29 38851.849 746621.13
 257072.18 40935.909 756464.24
 203812.33 42938.829 772409.73
 130939.15 44401.279 787961.59
 45167.510 45167.524 797445.79
 -45167.524 45167.509 797445.79
 -130939.16 44401.237 787961.59
 -203812.35 42938.767 772409.73
 -257072.18 40935.833 756464.24
 -284688.30 38851.770 746621.13
 284688.30 -38851.771 746621.13
 257072.18 -40935.834 756464.24
 203812.35 -42938.767 772409.73
 130939.16 -44401.238 787961.59
 45167.525 -45167.510 797445.79
 -45167.509 -45167.525 797445.79
 -130939.15 -44401.279 787961.59
 -203812.33 -42938.830 772409.73
 -257072.18 -40935.909 756464.24
 -284688.29 -38851.850 746621.13
 282134.41 -113599.68 739929.24
 254141.19 -119386.80 749105.50
 200975.07 -124876.02 764208.74
 128858.39 -128858.35 778967.93
 44401.280 -130939.15 787961.59
 -44401.237 -130939.16 787961.59
 -128858.35 -128858.39 778967.93
 -200975.03 -124876.08 764208.74
 -254141.16 -119386.87 749105.50
 -282134.39 -113599.75 739929.24
 277207.40 -179778.19 728584.83
 248498.94 -187946.48 736834.03
 195524.80 -195524.75 750693.10
 124876.08 -200975.03 764208.74
 42938.830 -203812.33 772409.73
 -42938.767 -203812.35 772409.73
 -124876.02 -200975.07 764208.74
 -195524.75 -195524.80 750693.10
 -248498.91 -187946.54 736834.03
 -277207.37 -179778.25 728584.83
 270453.77 -232117.95 716223.44
 240648.54 -240648.49 724000.40
 187946.54 -248498.91 736834.03
 119386.87 -254141.16 749105.50
 40935.909 -257072.18 756464.24
 -40935.833 -257072.18 756464.24
 -119386.80 -254141.19 749105.50
 -187946.48 -248498.94 736834.03
 -240648.49 -240648.54 724000.41
 -270453.74 -232117.99 716223.44
 263780.69 -263780.65 707700.16
 232117.99 -270453.74 716223.44
 179778.25 -277207.37 728584.83
 113599.75 -282134.39 739929.24
 38851.850 -284688.29 746621.13
 -38851.770 -284688.30 746621.13
 -113599.68 -282134.41 739929.24
 -179778.19 -277207.40 728584.83
 -232117.95 -270453.77 716223.44
 -263780.65 -263780.69 707700.16
 211453.69 211453.73 742007.18
 188738.21 209100.65 748768.86
 147116.06 208794.57 758130.39
 93041.412 209005.39 766589.88
 31800.135 209158.92 771518.82
 -31800.209 209158.92 771518.82
 -93041.479 209005.37 766589.88
 -147116.11 208794.54 758130.39
 -188738.25 209100.62 748768.86
 -211453.73 211453.69 742007.18
 209100.62 188738.25 748768.86
 189182.22 189182.26 753936.44
 148821.74 190225.25 762670.60
 94575.461 191142.92 771051.14
 32390.570 191627.00 776034.76
 -32390.638 191626.99 776034.76
 -94575.524 191142.89 771051.14
 -148821.79 190225.22 762670.60
 -189182.27 189182.22 753936.44
 -209100.65 188738.21 748768.86
 208794.54 147116.11 758130.39
 190225.22 148821.79 762670.60
 150667.07 150667.12 771102.36
 96184.421 151982.32 779519.04
 33013.509 152634.33 784610.01
 -33013.564 152634.32 784610.01
 -96184.472 151982.29 779519.04
 -150667.12 150667.07 771102.36
 -190225.25 148821.74 762670.60
 -208794.57 147116.05 758130.39
 209005.37 93041.479 766589.88
 191142.89 94575.525 771051.14
 151982.29 96184.471 779519.04
 97299.025 97299.057 788077.28
 33444.423 97842.732 793289.52
 -33444.459 97842.718 793289.53
 -97299.057 97299.024 788077.28
 -151982.32 96184.420 779519.04
 -191142.92 94575.461 771051.14
 -209005.39 93041.411 766589.88
 209158.92 31800.210 771518.82
 191626.99 32390.637 776034.76
 152634.32 33013.566 784610.01
 97842.719 33444.458 793289.53
 33653.958 33653.970 798583.01
 -33653.970 33653.958 798583.01
 -97842.732 33444.422 793289.53
 -152634.33 33013.509 784610.01
 -191627.00 32390.569 776034.76
 -209158.92 31800.135 771518.82
 209158.92 -31800.135 771518.82
 191627.00 -32390.569 776034.76
 152634.33 -33013.510 784610.01
 97842.732 -33444.421 793289.53
 33653.971 -33653.959 798583.01
 -33653.958 -33653.971 798583.01
 -97842.717 -33444.459 793289.53
 -152634.32 -33013.565 784610.01
 -191626.98 -32390.638 776034.76
 -209158.92 -31800.210 771518.82
 209005.39 -93041.411 766589.88
 191142.92 -94575.462 771051.14
 151982.32 -96184.420 779519.04
 97299.058 -97299.025 788077.28
 33444.460 -97842.718 793289.53
 -33444.422 -97842.732 793289.52
 -97299.024 -97299.058 788077.28
 -151982.29 -96184.472 779519.04
 -191142.89 -94575.525 771051.14
 -209005.37 -93041.480 766589.88
 208794.57 -147116.06 758130.39
 190225.25 -148821.74 762670.60
 150667.12 -150667.07 771102.36
 96184.473 -151982.29 779519.04
 33013.565 -152634.32 784610.01
 -33013.508 -152634.33 784610.01
 -96184.420 -151982.32 779519.04
 -150667.07 -150667.12 771102.36
 -190225.22 -148821.80 762670.60
 -208794.54 -147116.11 758130.39
 209100.65 -188738.21 748768.86
 189182.27 -189182.22 753936.44
 148821.80 -190225.22 762670.60
 94575.525 -191142.89 771051.14
 32390.639 -191626.99 776034.76
 -32390.570 -191627.00 776034.76
 -94575.460 -191142.92 771051.14
 -148821.74 -190225.25 762670.60
 -189182.22 -189182.26 753936.44
 -209100.62 -188738.25 748768.86
 211453.73 -211453.69 742007.18
 188738.25 -209100.62 748768.86
 147116.11 -208794.54 758130.39
 93041.480 -209005.37 766589.88
 31800.209 -209158.92 771518.82
 -31800.134 -209158.92 771518.82
 -93041.411 -209005.39 766589.88
 -147116.05 -208794.57 758130.39
 -188738.21 -209100.65 748768.86
 -211453.69 -211453.73 742007.18
 147313.91 147313.94 772397.06
 131325.56 140677.91 776507.13
 102293.67 135717.29 781739.61
 64591.478 132567.25 786291.21
 22046.416 131010.91 788891.69
 -22046.483 131010.90 788891.69
 -64591.541 132567.23 786291.21
 -102293.72 135717.26 781739.61
 -131325.61 140677.88 776507.13
 -147313.94 147313.91 772397.06
 140677.88 131325.61 776507.13
 127346.73 127346.77 779464.95
 100260.52 123781.45 783980.86
 63650.637 121366.68 788174.30
 21772.111 120147.74 790626.65
 -21772.171 120147.73 790626.65
 -63650.693 121366.66 788174.30
 -100260.57 123781.41 783980.85
 -127346.77 127346.73 779464.95
 -140677.91 131325.56 776507.13
 135717.26 102293.72 781739.61
 123781.42 100260.57 783980.85
 98197.548 98197.587 787854.35
 62645.523 96664.200 791663.80
 21476.083 95852.003 793946.58
 -21476.131 95851.992 793946.58
 -62645.567 96664.176 791663.80
 -98197.587 98197.548 787854.35
 -123781.45 100260.52 783980.86
 -135717.29 102293.67 781739.61
 132567.23 64591.541 786291.21
 121366.65 63650.692 788174.30
 96664.178 62645.569 791663.80
 61840.234 61840.264 795205.36
 21229.259 61392.716 797358.30
 -21229.289 61392.708 797358.30
 -61840.264 61840.234 795205.36
 -96664.201 62645.523 791663.80
 -121366.68 63650.636 788174.30
 -132567.25 64591.478 786291.21
 131010.91 22046.482 788891.69
 120147.73 21772.173 790626.65
 95851.992 21476.129 793946.58
 61392.709 21229.291 797358.30
 21088.104 21088.115 799443.92
 -21088.115 21088.103 799443.92
 -61392.716 21229.259 797358.30
 -95852.003 21476.082 793946.58
 -120147.74 21772.111 790626.65
 -131010.91 22046.415 788891.69
 131010.91 -22046.415 788891.69
 120147.74 -21772.112 790626.65
 95852.003 -21476.081 793946.58
 61392.717 -21229.260 797358.30
 21088.115 -21088.103 799443.92
 -21088.103 -21088.115 799443.92
 -61392.709 -21229.290 797358.30
 -95851.991 -21476.130 793946.58
 -120147.73 -21772.173 790626.65
 -131010.90 -22046.483 788891.69
 132567.25 -64591.479 786291.21
 121366.68 -63650.636 788174.30
 96664.202 -62645.524 791663.80
 61840.264 -61840.234 795205.36
 21229.290 -61392.709 797358.30
 -21229.259 -61392.716 797358.30
 -61840.233 -61840.265 795205.36
 -96664.178 -62645.568 791663.80
 -121366.65 -63650.692 788174.30
 -132567.23 -64591.541 786291.21
 135717.29 -102293.67 781739.61
 123781.45 -100260.52 783980.86
 98197.587 -98197.548 787854.35
 62645.568 -96664.177 791663.80
 21476.131 -95851.992 793946.58
 -21476.082 -95852.004 793946.58
 -62645.523 -96664.200 791663.80
 -98197.547 -98197.588 787854.35
 -123781.41 -100260.57 783980.85
 -135717.26 -102293.72 781739.61
 140677.91 -131325.56 776507.13
 127346.77 -127346.73 779464.95
 100260.57 -123781.41 783980.85
 63650.693 -121366.66 788174.30
 21772.172 -120147.73 790626.65
 -21772.110 -120147.74 790626.65
 -63650.637 -121366.68 788174.30
 -100260.52 -123781.44 783980.86
 -127346.73 -127346.77 779464.95
 -140677.88 -131325.61 776507.13
 147313.94 -147313.91 772397.06
 131325.61 -140677.88 776507.13
 102293.72 -135717.26 781739.61
 64591.541 -132567.23 786291.21
 22046.483 -131010.91 788891.69
 -22046.415 -131010.91 788891.69
 -64591.478 -132567.25 786291.21
 -102293.67 -135717.29 781739.61
 -131325.56 -140677.91 776507.13
 -147313.91 -147313.94 772397.06
 84720.627 84720.658 790977.13
 75106.017 78863.678 792552.59
 58261.479 73866.708 794449.06
 36687.039 70510.588 796041.66
 12503.650 68834.012 796935.09
 -12503.712 68834.008 796935.09
 -36687.096 70510.573 796041.65
 -58261.529 73866.685 794449.06
 -75106.057 78863.650 792552.59
 -84720.658 84720.627 790977.13
 78863.650 75106.057 792552.59
 71089.136 71089.171 793657.78
 55822.152 67139.090 795220.87
 35375.831 64357.511 796622.03
 12088.008 62947.316 797428.06
 -12088.062 62947.307 797428.06
 -35375.881 64357.494 796622.03
 -55822.196 67139.062 795220.87
 -71089.171 71089.135 793657.78
 -78863.678 75106.017 792552.59
 73866.686 58261.529 794449.06
 67139.061 55822.195 795220.87
 53195.133 53195.167 796454.99
 33910.080 51235.880 797637.13
 11618.636 50214.865 798337.95
 -11618.678 50214.859 798337.94
 -33910.119 51235.856 797637.13
 -53195.167 53195.132 796454.99
 -67139.089 55822.152 795220.87
 -73866.708 58261.479 794449.06
 70510.573 36687.095 796041.65
 64357.495 35375.883 796622.03
 51235.856 33910.118 797637.13
 32774.810 32774.835 798656.14
 11249.011 32169.406 799273.79
 -11249.038 32169.396 799273.79
 -32774.834 32774.810 798656.14
 -51235.879 33910.079 797637.13
 -64357.511 35375.831 796622.03
 -70510.588 36687.038 796041.66
 68834.008 12503.713 796935.09
 62947.307 12088.060 797428.06
 50214.860 11618.680 798337.94
 32169.396 11249.037 799273.79
 11049.550 11049.560 799847.37
 -11049.559 11049.550 799847.37
 -32169.406 11249.011 799273.79
 -50214.864 11618.637 798337.95
 -62947.315 12088.006 797428.06
 -68834.012 12503.651 796935.09
 68834.012 -12503.651 796935.09
 62947.315 -12088.006 797428.06
 50214.865 -11618.638 798337.95
 32169.406 -11249.010 799273.79
 11049.559 -11049.551 799847.37
 -11049.550 -11049.559 799847.37
 -32169.395 -11249.038 799273.79
 -50214.860 -11618.680 798337.94
 -62947.306 -12088.061 797428.06
 -68834.008 -12503.713 796935.09
 70510.588 -36687.038 796041.66
 64357.512 -35375.832 796622.03
 51235.879 -33910.078 797637.13
 32774.835 -32774.811 798656.14
 11249.038 -32169.395 799273.79
 -11249.010 -32169.407 799273.79
 -32774.810 -32774.834 798656.14
 -51235.855 -33910.119 797637.13
 -64357.495 -35375.883 796622.03
 -70510.573 -36687.096 796041.65
 73866.708 -58261.479 794449.06
 67139.090 -55822.152 795220.87
 53195.167 -53195.133 796454.99
 33910.119 -51235.856 797637.13
 11618.679 -50214.860 798337.94
 -11618.636 -50214.864 798337.95
 -33910.079 -51235.880 797637.13
 -53195.133 -53195.166 796454.99
 -67139.061 -55822.196 795220.87
 -73866.685 -58261.529 794449.06
 78863.678 -75106.017 792552.59
 71089.171 -71089.135 793657.78
 55822.196 -67139.062 795220.87
 35375.882 -64357.494 796622.03
 12088.062 -62947.307 797428.06
 -12088.008 -62947.316 797428.06
 -35375.831 -64357.511 796622.03
 -55822.152 -67139.091 795220.87
 -71089.135 -71089.170 793657.78
 -78863.650 -75106.057 792552.59
 84720.658 -84720.627 790977.13
 75106.057 -78863.650 792552.59
 58261.529 -73866.685 794449.06
 36687.096 -70510.573 796041.65
 12503.712 -68834.008 796935.09
 -12503.650 -68834.012 796935.09
 -36687.039 -70510.588 796041.66
 -58261.479 -73866.707 794449.06
 -75106.017 -78863.679 792552.59
 -84720.627 -84720.658 790977.13
 27400.849 27400.878 799060.94
 24197.256 25167.419 799237.82
 18711.820 23181.043 799445.12
 11760.101 21823.995 799615.79
 4004.3817 21143.764 799710.51
 -4004.4398 21143.759 799710.51
 -11760.155 21823.982 799615.79
 -18711.867 23181.022 799445.12
 -24197.294 25167.392 799237.82
 -27400.878 27400.849 799060.94
 25167.392 24197.294 799237.82
 22615.459 22615.492 799360.42
 17719.132 21013.828 799527.64
 11214.822 19872.043 799674.51
 3829.8538 19292.131 799758.18
 -3829.9049 19292.126 799758.18
 -11214.869 19872.026 799674.51
 -17719.173 21013.802 799527.64
 -22615.493 22615.459 799360.42
 -25167.419 24197.256 799237.82
 23181.022 18711.867 799445.12
 21013.802 17719.174 799527.64
 16627.549 16627.581 799654.33
 10594.040 15809.562 799773.61
 3629.1034 15384.227 799843.83
 -3629.1428 15384.219 799843.83
 -10594.077 15809.541 799773.61
 -16627.582 16627.549 799654.33
 -21013.828 17719.132 799527.64
 -23181.043 18711.820 799445.12
 21823.982 11760.156 799615.79
 19872.025 11214.868 799674.51
 15809.542 10594.078 799773.61
 10113.657 10113.680 799872.13
 3471.5841 9859.0506 799931.71
 -3471.6088 9859.0420 799931.71
 -10113.681 10113.658 799872.13
 -15809.561 10594.040 799773.61
 -19872.042 11214.820 799674.51
 -21823.995 11760.102 799615.79
 21143.759 4004.4390 799710.51
 19292.126 3829.9068 799758.18
 15384.219 3629.1413 799843.83
 9859.0427 3471.6098 799931.71
 3387.2772 3387.2852 799985.66
 -3387.2859 3387.2781 799985.66
 -9859.0500 3471.5837 799931.71
 -15384.227 3629.1024 799843.83
 -19292.131 3829.8553 799758.18
 -21143.764 4004.3808 799710.51
 21143.764 -4004.3809 799710.51
 19292.131 -3829.8555 799758.18
 15384.226 -3629.1018 799843.83
 9859.0503 -3471.5849 799931.71
 3387.2859 -3387.2765 799985.66
 -3387.2770 -3387.2869 799985.66
 -9859.0429 -3471.6086 799931.71
 -15384.218 -3629.1420 799843.83
 -19292.127 -3829.9065 799758.18
 -21143.759 -4004.4391 799710.51
 21823.996 -11760.102 799615.79
 19872.042 -11214.820 799674.51
 15809.562 -10594.041 799773.61
 10113.681 -10113.657 799872.13
 3471.6094 -9859.0432 799931.71
 -3471.5845 -9859.0494 799931.71
 -10113.657 -10113.681 799872.13
 -15809.542 -10594.077 799773.61
 -19872.025 -11214.868 799674.51
 -21823.982 -11760.156 799615.79
 23181.043 -18711.820 799445.12
 21013.828 -17719.132 799527.64
 16627.582 -16627.549 799654.33
 10594.077 -15809.542 799773.61
 3629.1421 -15384.219 799843.83
 -3629.1024 -15384.227 799843.83
 -10594.040 -15809.561 799773.61
 -16627.549 -16627.582 799654.33
 -21013.802 -17719.173 799527.64
 -23181.022 -18711.867 799445.12
 25167.419 -24197.256 799237.82
 22615.493 -22615.459 799360.42
 17719.173 -21013.802 799527.64
 11214.869 -19872.025 799674.51
 3829.9058 -19292.126 799758.18
 -3829.8545 -19292.131 799758.18
 -11214.821 -19872.043 799674.51
 -17719.132 -21013.828 799527.64
 -22615.459 -22615.493 799360.42
 -25167.392 -24197.294 799237.82
 27400.879 -27400.849 799060.94
 24197.294 -25167.392 799237.82
 18711.867 -23181.022 799445.12
 11760.156 -21823.982 799615.79
 4004.4395 -21143.759 799710.51
 -4004.3813 -21143.764 799710.51
 -11760.101 -21823.995 799615.79
 -18711.820 -23181.043 799445.12
 -24197.256 -25167.419 799237.82
 -27400.849 -27400.879 799060.94
 -27400.879 -27400.849 799060.94
 -24197.294 -25167.392 799237.82
 -18711.867 -23181.022 799445.12
 -11760.155 -21823.982 799615.79
 -4004.4399 -21143.759 799710.51
 4004.3816 -21143.764 799710.51
 11760.101 -21823.995 799615.79
 18711.820 -23181.043 799445.12
 24197.256 -25167.419 799237.82
 27400.849 -27400.878 799060.94
 -25167.419 -24197.256 799237.82
 -22615.493 -22615.458 799360.42
 -17719.173 -21013.802 799527.64
 -11214.870 -19872.025 799674.51
 -3829.9049 -19292.126 799758.18
 3829.8537 -19292.131 799758.18
 11214.822 -19872.043 799674.51
 17719.131 -21013.828 799527.64
 22615.460 -22615.492 799360.42
 25167.392 -24197.294 799237.82
 -23181.043 -18711.820 799445.12
 -21013.828 -17719.132 799527.64
 -16627.582 -16627.549 799654.33
 -10594.076 -15809.542 799773.61
 -3629.1431 -15384.218 799843.83
 3629.1033 -15384.227 799843.83
 10594.039 -15809.561 799773.61
 16627.550 -16627.582 799654.33
 21013.801 -17719.173 799527.64
 23181.022 -18711.867 799445.12
 -21823.995 -11760.102 799615.79
 -19872.043 -11214.820 799674.51
 -15809.561 -10594.040 799773.61
 -10113.681 -10113.657 799872.13
 -3471.6088 -9859.0432 799931.71
 3471.5840 -9859.0489 799931.71
 10113.657 -10113.682 799872.13
 15809.541 -10594.076 799773.61
 19872.026 -11214.869 799674.51
 21823.982 -11760.156 799615.79
 -21143.764 -4004.3811 799710.51
 -19292.131 -3829.8549 799758.18
 -15384.227 -3629.1026 799843.83
 -9859.0498 -3471.5842 799931.71
 -3387.2861 -3387.2766 799985.66
 3387.2771 -3387.2872 799985.66
 9859.0426 -3471.6077 799931.71
 15384.219 -3629.1430 799843.83
 19292.126 -3829.9057 799758.18
 21143.759 -4004.4393 799710.51
 -21143.759 4004.4394 799710.51
 -19292.126 3829.9060 799758.18
 -15384.219 3629.1424 799843.83
 -9859.0431 3471.6089 799931.71
 -3387.2771 3387.2857 799985.66
 3387.2859 3387.2783 799985.66
 9859.0500 3471.5830 799931.71
 15384.226 3629.1033 799843.83
 19292.131 3829.8546 799758.18
 21143.764 4004.3812 799710.51
 -21823.982 11760.156 799615.79
 -19872.025 11214.868 799674.51
 -15809.542 10594.077 799773.61
 -10113.657 10113.681 799872.13
 -3471.5846 9859.0502 799931.71
 3471.6092 9859.0420 799931.71
 10113.681 10113.658 799872.13
 15809.561 10594.040 799773.61
 19872.043 11214.821 799674.51
 21823.995 11760.101 799615.79
 -23181.022 18711.867 799445.12
 -21013.802 17719.174 799527.64
 -16627.550 16627.581 799654.33
 -10594.040 15809.562 799773.61
 -3629.1025 15384.227 799843.83
 3629.1421 15384.219 799843.83
 10594.077 15809.541 799773.61
 16627.582 16627.550 799654.33
 21013.828 17719.132 799527.64
 23181.043 18711.820 799445.12
 -25167.392 24197.294 799237.82
 -22615.460 22615.492 799360.42
 -17719.131 21013.829 799527.64
 -11214.821 19872.042 799674.51
 -3829.8547 19292.131 799758.18
 3829.9057 19292.126 799758.18
 11214.869 19872.026 799674.51
 17719.173 21013.802 799527.64
 22615.493 22615.459 799360.42
 25167.419 24197.256 799237.82
 -27400.849 27400.878 799060.94
 -24197.256 25167.419 799237.82
 -18711.820 23181.043 799445.12
 -11760.101 21823.996 799615.79
 -4004.3813 21143.764 799710.51
 4004.4395 21143.759 799710.51
 11760.156 21823.982 799615.79
 18711.867 23181.022 799445.12
 24197.294 25167.392 799237.82
 27400.879 27400.849 799060.94
 -84720.658 -84720.627 790977.13
 -75106.057 -78863.650 792552.59
 -58261.528 -73866.686 794449.06
 -36687.097 -70510.573 796041.65
 -12503.712 -68834.008 796935.09
 12503.650 -68834.012 796935.09
 36687.039 -70510.588 796041.66
 58261.478 -73866.708 794449.06
 75106.018 -78863.678 792552.59
 84720.627 -84720.658 790977.13
 -78863.679 -75106.017 792552.59
 -71089.170 -71089.136 793657.78
 -55822.197 -67139.061 795220.87
 -35375.881 -64357.495 796622.03
 -12088.063 -62947.307 797428.06
 12088.008 -62947.315 797428.06
 35375.830 -64357.511 796622.03
 55822.153 -67139.090 795220.87
 71089.134 -71089.171 793657.78
 78863.651 -75106.057 792552.59
 -73866.707 -58261.479 794449.06
 -67139.091 -55822.152 795220.87
 -53195.166 -53195.133 796454.99
 -33910.121 -51235.856 797637.13
 -11618.678 -50214.860 798337.94
 11618.635 -50214.864 798337.95
 33910.080 -51235.880 797637.13
 53195.131 -53195.166 796454.99
 67139.062 -55822.196 795220.87
 73866.685 -58261.529 794449.06
 -70510.588 -36687.039 796041.66
 -64357.511 -35375.831 796622.03
 -51235.881 -33910.080 797637.13
 -32774.834 -32774.810 798656.14
 -11249.039 -32169.396 799273.79
 11249.011 -32169.407 799273.79
 32774.809 -32774.833 798656.14
 51235.857 -33910.121 797637.13
 64357.494 -35375.881 796622.03
 70510.573 -36687.096 796041.65
 -68834.012 -12503.650 796935.09
 -62947.316 -12088.008 797428.06
 -50214.864 -11618.635 798337.95
 -32169.407 -11249.012 799273.79
 -11049.559 -11049.550 799847.37
 11049.550 -11049.558 799847.37
 32169.396 -11249.040 799273.79
 50214.859 -11618.677 798337.94
 62947.307 -12088.063 797428.06
 68834.008 -12503.712 796935.09
 -68834.008 12503.712 796935.09
 -62947.307 12088.062 797428.06
 -50214.860 11618.678 798337.94
 -32169.396 11249.039 799273.79
 -11049.551 11049.559 799847.37
 11049.559 11049.549 799847.37
 32169.406 11249.013 799273.79
 50214.865 11618.635 798337.95
 62947.315 12088.008 797428.06
 68834.012 12503.650 796935.09
 -70510.573 36687.096 796041.65
 -64357.494 35375.882 796622.03
 -51235.857 33910.120 797637.13
 -32774.810 32774.834 798656.14
 -11249.011 32169.407 799273.79
 11249.038 32169.396 799273.79
 32774.834 32774.809 798656.14
 51235.880 33910.081 797637.13
 64357.511 35375.830 796622.03
 70510.588 36687.039 796041.66
 -73866.685 58261.529 794449.06
 -67139.063 55822.196 795220.87
 -53195.132 53195.167 796454.99
 -33910.080 51235.880 797637.13
 -11618.636 50214.865 798337.95
 11618.679 50214.859 798337.94
 33910.120 51235.857 797637.13
 53195.165 53195.132 796454.99
 67139.091 55822.153 795220.87
 73866.707 58261.479 794449.06
 -78863.651 75106.057 792552.59
 -71089.134 71089.172 793657.78
 -55822.153 67139.089 795220.87
 -35375.830 64357.512 796622.03
 -12088.008 62947.315 797428.06
 12088.062 62947.307 797428.06
 35375.881 64357.494 796622.03
 55822.197 67139.062 795220.87
 71089.170 71089.135 793657.78
 78863.679 75106.017 792552.59
 -84720.627 84720.658 790977.13
 -75106.018 78863.678 792552.59
 -58261.479 73866.708 794449.06
 -36687.039 70510.588 796041.66
 -12503.651 68834.012 796935.09
 12503.712 68834.008 796935.09
 36687.096 70510.573 796041.65
 58261.528 73866.685 794449.06
 75106.057 78863.650 792552.59
 84720.658 84720.627 790977.13
 -147313.94 -147313.91 772397.06
 -131325.61 -140677.88 776507.13
 -102293.72 -135717.26 781739.61
 -64591.541 -132567.23 786291.21
 -22046.483 -131010.90 788891.69
 22046.415 -131010.91 788891.69
 64591.477 -132567.25 786291.21
 102293.67 -135717.29 781739.61
 131325.56 -140677.91 776507.13
 147313.91 -147313.94 772397.06
 -140677.91 -131325.56 776507.13
 -127346.77 -127346.73 779464.95
 -100260.57 -123781.41 783980.85
 -63650.694 -121366.66 788174.30
 -21772.171 -120147.73 790626.65
 21772.110 -120147.74 790626.65
 63650.637 -121366.68 788174.30
 100260.52 -123781.45 783980.86
 127346.73 -127346.77 779464.95
 140677.88 -131325.61 776507.13
 -135717.29 -102293.67 781739.61
 -123781.44 -100260.52 783980.86
 -98197.589 -98197.548 787854.35
 -62645.567 -96664.177 791663.80
 -21476.132 -95851.992 793946.58
 21476.083 -95852.004 793946.58
 62645.522 -96664.200 791663.80
 98197.549 -98197.588 787854.35
 123781.41 -100260.57 783980.85
 135717.26 -102293.72 781739.61
 -132567.25 -64591.478 786291.21
 -121366.68 -63650.637 788174.30
 -96664.200 -62645.522 791663.80
 -61840.266 -61840.235 795205.36
 -21229.290 -61392.708 797358.30
 21229.259 -61392.715 797358.30
 61840.234 -61840.266 795205.36
 96664.176 -62645.566 791663.80
 121366.66 -63650.694 788174.30
 132567.23 -64591.540 786291.21
 -131010.91 -22046.415 788891.69
 -120147.74 -21772.110 790626.65
 -95852.004 -21476.084 793946.58
 -61392.716 -21229.258 797358.30
 -21088.116 -21088.104 799443.92
 21088.103 -21088.116 799443.92
 61392.708 -21229.288 797358.30
 95851.992 -21476.133 793946.58
 120147.73 -21772.170 790626.65
 131010.90 -22046.483 788891.69
 -131010.91 22046.483 788891.69
 -120147.73 21772.171 790626.65
 -95851.992 21476.132 793946.58
 -61392.709 21229.289 797358.30
 -21088.103 21088.116 799443.92
 21088.115 21088.104 799443.92
 61392.716 21229.258 797358.30
 95852.003 21476.085 793946.58
 120147.74 21772.110 790626.65
 131010.91 22046.416 788891.69
 -132567.23 64591.541 786291.21
 -121366.66 63650.693 788174.30
 -96664.177 62645.567 791663.80
 -61840.235 61840.265 795205.36
 -21229.259 61392.716 797358.30
 21229.290 61392.708 797358.30
 61840.265 61840.235 795205.36
 96664.200 62645.522 791663.80
 121366.68 63650.638 788174.30
 132567.25 64591.478 786291.21
 -135717.27 102293.72 781739.61
 -123781.41 100260.57 783980.85
 -98197.549 98197.587 787854.35
 -62645.522 96664.201 791663.80
 -21476.083 95852.004 793946.58
 21476.131 95851.992 793946.58
 62645.567 96664.177 791663.80
 98197.588 98197.549 787854.35
 123781.44 100260.52 783980.86
 135717.29 102293.67 781739.61
 -140677.88 131325.61 776507.13
 -127346.73 127346.77 779464.95
 -100260.52 123781.45 783980.86
 -63650.638 121366.68 788174.30
 -21772.111 120147.74 790626.65
 21772.171 120147.73 790626.65
 63650.693 121366.66 788174.30
 100260.57 123781.41 783980.85
 127346.77 127346.73 779464.95
 140677.91 131325.56 776507.13
 -147313.91 147313.94 772397.06
 -131325.56 140677.91 776507.13
 -102293.67 135717.29 781739.61
 -64591.478 132567.25 786291.21
 -22046.416 131010.91 788891.69
 22046.483 131010.91 788891.69
 64591.540 132567.23 786291.21
 102293.72 135717.26 781739.61
 131325.61 140677.88 776507.13
 147313.94 147313.91 772397.06
 -211453.73 -211453.69 742007.18
 -188738.25 -209100.62 748768.86
 -147116.11 -208794.54 758130.39
 -93041.480 -209005.37 766589.88
 -31800.209 -209158.92 771518.82
 31800.134 -209158.92 771518.82
 93041.411 -209005.39 766589.88
 147116.05 -208794.57 758130.39
 188738.21 -209100.65 748768.86
 211453.69 -211453.73 742007.18
 -209100.65 -188738.21 748768.86
 -189182.26 -189182.22 753936.44
 -148821.80 -190225.22 762670.60
 -94575.524 -191142.89 771051.14
 -32390.639 -191626.99 776034.76
 32390.570 -191627.00 776034.76
 94575.460 -191142.92 771051.15
 148821.74 -190225.25 762670.60
 189182.22 -189182.26 753936.44
 209100.62 -188738.25 748768.86
 -208794.57 -147116.06 758130.39
 -190225.26 -148821.74 762670.60
 -150667.12 -150667.07 771102.36
 -96184.473 -151982.29 779519.04
 -33013.565 -152634.32 784610.01
 33013.508 -152634.33 784610.01
 96184.421 -151982.32 779519.04
 150667.07 -150667.12 771102.36
 190225.22 -148821.80 762670.60
 208794.54 -147116.11 758130.39
 -209005.39 -93041.411 766589.88
 -191142.92 -94575.460 771051.14
 -151982.32 -96184.421 779519.04
 -97299.057 -97299.023 788077.28
 -33444.460 -97842.718 793289.53
 33444.422 -97842.732 793289.52
 97299.023 -97299.056 788077.28
 151982.29 -96184.473 779519.04
 191142.89 -94575.523 771051.14
 209005.37 -93041.480 766589.88
 -209158.92 -31800.134 771518.82
 -191627.00 -32390.570 776034.76
 -152634.33 -33013.507 784610.01
 -97842.733 -33444.423 793289.52
 -33653.971 -33653.958 798583.01
 33653.958 -33653.970 798583.01
 97842.718 -33444.460 793289.53
 152634.32 -33013.563 784610.01
 191626.99 -32390.639 776034.76
 209158.92 -31800.209 771518.82
 -209158.92 31800.209 771518.82
 -191626.99 32390.639 776034.76
 -152634.32 33013.564 784610.01
 -97842.718 33444.460 793289.53
 -33653.959 33653.970 798583.01
 33653.970 33653.958 798583.01
 97842.732 33444.423 793289.52
 152634.33 33013.507 784610.01
 191627.00 32390.571 776034.76
 209158.92 31800.134 771518.82
 -209005.37 93041.480 766589.88
 -191142.89 94575.525 771051.14
 -151982.29 96184.473 779519.04
 -97299.024 97299.057 788077.28
 -33444.422 97842.732 793289.52
 33444.459 97842.718 793289.53
 97299.056 97299.024 788077.28
 151982.32 96184.421 779519.04
 191142.91 94575.460 771051.15
 209005.39 93041.412 766589.88
 -208794.54 147116.11 758130.39
 -190225.22 148821.79 762670.60
 -150667.07 150667.12 771102.36
 -96184.421 151982.32 779519.04
 -33013.509 152634.33 784610.01
 33013.564 152634.32 784610.01
 96184.473 151982.29 779519.04
 150667.11 150667.07 771102.36
 190225.26 148821.74 762670.60
 208794.57 147116.06 758130.39
 -209100.62 188738.25 748768.86
 -189182.22 189182.27 753936.44
 -148821.74 190225.25 762670.60
 -94575.461 191142.92 771051.14
 -32390.570 191627.00 776034.76
 32390.638 191626.99 776034.76
 94575.523 191142.89 771051.14
 148821.80 190225.22 762670.60
 189182.26 189182.22 753936.44
 209100.65 188738.21 748768.86
 -211453.69 211453.73 742007.18
 -188738.21 209100.65 748768.86
 -147116.06 208794.57 758130.39
 -93041.412 209005.39 766589.88
 -31800.135 209158.92 771518.82
 31800.209 209158.92 771518.82
 93041.480 209005.37 766589.88
 147116.11 208794.54 758130.39
 188738.25 209100.62 748768.86
 211453.73 211453.69 742007.18
 -263780.69 -263780.65 707700.16
 -232117.99 -270453.74 716223.44
 -179778.25 -277207.37 728584.83
 -113599.75 -282134.39 739929.24
 -38851.850 -284688.29 746621.13
 38851.770 -284688.30 746621.13
 113599.68 -282134.41 739929.24
 179778.19 -277207.40 728584.83