# OOMMF OVF 2.0
#
# Segment count: 1
#
# Begin: Segment
# Begin: Header
#
# Title: Oxs_MinDriver::Magnetization
# Desc: Oxs vector field output
# Desc:  MIF source file: /home/ryan/Git/joommf/tools/omfvis/mifs/cube_example1.mif
# Desc:  Iteration: 74, State id: 177
# Desc:  Stage: 0, Stage iteration: 74
# Desc:  Stage simulation time: -1 s
# Desc:  Total simulation time: -2 s
# meshunit: m
# meshtype: rectangular
# xbase: 2.5000000000000001e-09
# ybase: 2.5000000000000001e-09
# zbase: 2.5000000000000001e-09
# xnodes: 10
# ynodes: 10
# znodes: 10
# xstepsize: 5.0000000000000001e-09
# ystepsize: 5.0000000000000001e-09
# zstepsize: 5.0000000000000001e-09
# xmin: 0
# ymin: 0
# zmin: 0
# xmax: 4.9999999999999998e-08
# ymax: 4.9999999999999998e-08
# zmax: 4.9999999999999998e-08
# valuedim: 3
# valuelabels: Magnetization_x Magnetization_y Magnetization_z
# valueunits: A/m A/m A/m
#
# End: Header
#
# Begin: Data Text
 345373.35 345373.35 633588.59
 313816.44 350412.95 647093.51
 251862.29 357339.72 669980.38
 163858.14 363743.53 693427.11
 56967.075 367631.12 708238.74
 -56967.075 367631.12 708238.74
 -163858.14 363743.53 693427.11
 -251862.29 357339.72 669980.38
 -313816.44 350412.95 647093.51
 -345373.35 345373.35 633588.59
 350412.95 313816.44 647093.51
 322297.09 322297.09 657456.59
 261205.31 331504.00 679615.25
 171032.90 339572.69 703873.66
 59655.087 344415.96 719596.36
 -59655.087 344415.96 719596.36
 -171032.90 339572.69 703873.66
 -261205.31 331504.00 679615.25
 -322297.09 322297.09 657456.59
 -350412.95 313816.44 647093.51
 357339.72 251862.29 669980.38
 331504.00 261205.31 679615.25
 271069.90 271069.90 702169.65
 178702.57 279508.69 727969.97
 62559.667 284532.31 745068.89
 -62559.667 284532.31 745068.89
 -178702.57 279508.69 727969.97
 -271069.90 271069.90 702169.65
 -331504.00 261205.31 679615.25
 -357339.72 251862.29 669980.38
 363743.53 163858.14 693427.11
 339572.69 171032.90 703873.66
 279508.69 178702.57 727969.97
 185245.77 185245.77 755888.88
 65043.538 189133.64 774595.25
 -65043.538 189133.64 774595.25
 -185245.77 185245.77 755888.88
 -279508.69 178702.57 727969.97
 -339572.69 171032.90 703873.66
 -363743.53 163858.14 693427.11
 367631.12 56967.075 708238.74
 344415.96 59655.087 719596.36
 284532.31 62559.667 745068.89
 189133.64 65043.538 774595.25
 66520.338 66520.338 794449.55
 -66520.338 66520.338 794449.55
 -189133.64 65043.538 774595.25
 -284532.31 62559.667 745068.89
 -344415.96 59655.087 719596.36
 -367631.12 56967.075 708238.74
 367631.12 -56967.075 708238.74
 344415.96 -59655.087 719596.36
 284532.31 -62559.667 745068.89
 189133.64 -65043.538 774595.25
 66520.338 -66520.338 794449.55
 -66520.338 -66520.338 794449.55
 -189133.64 -65043.538 774595.25
 -284532.31 -62559.667 745068.89
 -344415.96 -59655.087 719596.36
 -367631.12 -56967.075 708238.74
 363743.53 -163858.14 693427.11
 339572.69 -171032.90 703873.66
 279508.69 -178702.57 727969.97
 185245.77 -185245.77 755888.88
 65043.538 -189133.64 774595.25
 -65043.538 -189133.64 774595.25
 -185245.77 -185245.77 755888.88
 -279508.69 -178702.57 727969.97
 -339572.69 -171032.90 703873.66
 -363743.53 -163858.14 693427.11
 357339.72 -251862.29 669980.38
 331504.00 -261205.31 679615.25
 271069.90 -271069.90 702169.65
 178702.57 -279508.69 727969.97
 62559.667 -284532.31 745068.89
 -62559.667 -284532.31 745068.89
 -178702.57 -279508.69 727969.97
 -271069.90 -271069.90 702169.65
 -331504.00 -261205.31 679615.25
 -357339.72 -251862.29 669980.38
 350412.95 -313816.44 647093.51
 322297.09 -322297.09 657456.59
 261205.31 -331504.00 679615.25
 171032.90 -339572.69 703873.66
 59655.087 -344415.96 719596.36
 -59655.087 -344415.96 719596.36
 -171032.90 -339572.69 703873.66
 -261205.31 -331504.00 679615.25
 -322297.09 -322297.09 657456.59
 -350412.95 -313816.44 647093.51
 345373.35 -345373.35 633588.59
 313816.44 -350412.95 647093.51
 251862.29 -357339.72 669980.38
 163858.14 -363743.53 693427.11
 56967.075 -367631.12 708238.74
 -56967.075 -367631.12 708238.74
 -163858.14 -363743.53 693427.11
 -251862.29 -357339.72 669980.38
 -313816.44 -350412.95 647093.51
 -345373.35 -345373.35 633588.59
 292385.69 292385.69 684851.23
 266050.15 285711.88 698273.61
 212409.99 281757.85 717979.46
 137040.05 279599.20 736915.41
 47359.505 278616.02 748418.46
 -47359.505 278616.02 748418.46
 -137040.05 279599.20 736915.41
 -212409.99 281757.85 717979.46
 -266050.15 285711.88 698273.61
 -292385.69 292385.69 684851.23
 285711.88 266050.15 698273.61
 263368.30 263368.30 708007.26
 212170.90 261675.65 725609.65
 137507.71 260908.63 743652.01
 47605.732 260640.01 754851.29
 -47605.732 260640.01 754851.29
 -137507.71 260908.63 743652.01
 -212170.90 261675.65 725609.65
 -263368.30 263368.30 708007.26
 -285711.88 266050.15 698273.61
 281757.85 212409.99 717979.46
 261675.65 212170.90 725609.65
 212317.33 212317.33 741513.79
 138229.38 212634.19 758735.35
 47955.049 212873.69 769665.58
 -47955.049 212873.69 769665.58
 -138229.38 212634.19 758735.35
 -212317.33 212317.33 741513.79
 -261675.65 212170.90 725609.65
 -281757.85 212409.99 717979.46
 279599.20 137040.05 736915.41
 260908.63 137507.71 743652.01
 212634.19 138229.38 758735.35
 138848.34 138848.34 775527.10
 48238.604 139201.80 786317.94
 -48238.604 139201.80 786317.94
 -138848.34 138848.34 775527.10
 -212634.19 138229.38 758735.35
 -260908.63 137507.71 743652.01
 -279599.20 137040.05 736915.41
 278616.02 47359.505 748418.46
 260640.01 47605.732 754851.29
 212873.69 47955.049 769665.58
 139201.80 48238.604 786317.94
 48394.184 48394.184 797067.13
 -48394.184 48394.184 797067.13
 -139201.80 48238.604 786317.94
 -212873.69 47955.049 769665.58
 -260640.01 47605.732 754851.29
 -278616.02 47359.505 748418.46
 278616.02 -47359.505 748418.46
 260640.01 -47605.732 754851.29
 212873.69 -47955.049 769665.58
 139201.80 -48238.604 786317.94
 48394.184 -48394.184 797067.13
 -48394.184 -48394.184 797067.13
 -139201.80 -48238.604 786317.94
 -212873.69 -47955.049 769665.58
 -260640.01 -47605.732 754851.29
 -278616.02 -47359.505 748418.46
 279599.20 -137040.05 736915.41
 260908.63 -137507.71 743652.01
 212634.19 -138229.38 758735.35
 138848.34 -138848.34 775527.10
 48238.604 -139201.80 786317.94
 -48238.604 -139201.80 786317.94
 -138848.34 -138848.34 775527.10
 -212634.19 -138229.38 758735.35
 -260908.63 -137507.71 743652.01
 -279599.20 -137040.05 736915.41
 281757.85 -212409.99 717979.46
 261675.65 -212170.90 725609.65
 212317.33 -212317.33 741513.79
 138229.38 -212634.19 758735.35
 47955.049 -212873.69 769665.58
 -47955.049 -212873.69 769665.58
 -138229.38 -212634.19 758735.35
 -212317.33 -212317.33 741513.79
 -261675.65 -212170.90 725609.65
 -281757.85 -212409.99 717979.46
 285711.88 -266050.15 698273.61
 263368.30 -263368.30 708007.26
 212170.90 -261675.65 725609.65
 137507.71 -260908.63 743652.01
 47605.732 -260640.01 754851.29
 -47605.732 -260640.01 754851.29
 -137507.71 -260908.63 743652.01
 -212170.90 -261675.65 725609.65
 -263368.30 -263368.30 708007.26
 -285711.88 -266050.15 698273.61
 292385.69 -292385.69 684851.23
 266050.15 -285711.88 698273.61
 212409.99 -281757.85 717979.46
 137040.05 -279599.20 736915.41
 47359.505 -278616.02 748418.46
 -47359.505 -278616.02 748418.46
 -137040.05 -279599.20 736915.41
 -212409.99 -281757.85 717979.46
 -266050.15 -285711.88 698273.61
 -292385.69 -292385.69 684851.23
 215363.59 215363.59 739754.72
 193585.74 202499.68 749345.34
 152419.08 191024.44 761759.86
 97099.222 182812.04 772755.78
 33301.245 178508.38 779118.60
 -33301.245 178508.38 779118.60
 -97099.222 182812.04 772755.78
 -152419.08 191024.44 761759.86
 -193585.74 202499.68 749345.34
 -215363.59 215363.59 739754.72
 202499.68 193585.74 749345.34
 184592.03 184592.03 756208.68
 146750.13 175473.92 766598.53
 93906.712 168721.72 776346.90
 32256.127 165158.19 782101.22
 -32256.127 165158.19 782101.22
 -93906.712 168721.72 776346.90
 -146750.13 175473.92 766598.53
 -184592.03 184592.03 756208.68
 -202499.68 193585.74 749345.34
 191024.44 152419.08 761759.86
 175473.92 146750.13 766598.53
 140546.23 140546.23 774915.16
 90335.658 135735.83 783208.31
 31086.767 133145.94 788229.52
 -31086.767 133145.94 788229.52
 -90335.658 135735.83 783208.31
 -140546.23 140546.23 774915.16
 -175473.92 146750.13 766598.53
 -191024.44 152419.08 761759.86
 182812.04 97099.222 772755.78
 168721.72 93906.712 776346.90
 135735.83 90335.658 783208.31
 87485.295 87485.295 790375.00
 30142.605 85923.316 794800.99
 -30142.605 85923.316 794800.99
 -87485.295 87485.295 790375.00
 -135735.83 90335.658 783208.31
 -168721.72 93906.712 776346.90
 -182812.04 97099.222 772755.78
 178508.38 33301.245 779118.60
 165158.19 32256.127 782101.22
 133145.94 31086.767 788229.52
 85923.316 30142.605 794800.99
 29620.531 29620.531 798902.53
 -29620.531 29620.531 798902.53
 -85923.316 30142.605 794800.99
 -133145.94 31086.767 788229.52
 -165158.19 32256.127 782101.22
 -178508.38 33301.245 779118.60
 178508.38 -33301.245 779118.60
 165158.19 -32256.127 782101.22
 133145.94 -31086.767 788229.52
 85923.316 -30142.605 794800.99
 29620.531 -29620.531 798902.53
 -29620.531 -29620.531 798902.53
 -85923.316 -30142.605 794800.99
 -133145.94 -31086.767 788229.52
 -165158.19 -32256.127 782101.22
 -178508.38 -33301.245 779118.60
 182812.04 -97099.222 772755.78
 168721.72 -93906.712 776346.90
 135735.83 -90335.658 783208.31
 87485.295 -87485.295 790375.00
 30142.605 -85923.316 794800.99
 -30142.605 -85923.316 794800.99
 -87485.295 -87485.295 790375.00
 -135735.83 -90335.658 783208.31
 -168721.72 -93906.712 776346.90
 -182812.04 -97099.222 772755.78
 191024.44 -152419.08 761759.86
 175473.92 -146750.13 766598.53
 140546.23 -140546.23 774915.16
 90335.658 -135735.83 783208.31
 31086.767 -133145.94 788229.52
 -31086.767 -133145.94 788229.52
 -90335.658 -135735.83 783208.31
 -140546.23 -140546.23 774915.16
 -175473.92 -146750.13 766598.53
 -191024.44 -152419.08 761759.86
 202499.68 -193585.74 749345.34
 184592.03 -184592.03 756208.68
 146750.13 -175473.92 766598.53
 93906.712 -168721.72 776346.90
 32256.127 -165158.19 782101.22
 -32256.127 -165158.19 782101.22
 -93906.712 -168721.72 776346.90
 -146750.13 -175473.92 766598.53
 -184592.03 -184592.03 756208.68
 -202499.68 -193585.74 749345.34
 215363.59 -215363.59 739754.72
 193585.74 -202499.68 749345.34
 152419.08 -191024.44 761759.86
 97099.222 -182812.04 772755.78
 33301.245 -178508.38 779118.60
 -33301.245 -178508.38 779118.60
 -97099.222 -182812.04 772755.78
 -152419.08 -191024.44 761759.86
 -193585.74 -202499.68 749345.34
 -215363.59 -215363.59 739754.72
 128940.69 128940.69 778940.69
 114317.70 117661.95 782998.80
 88719.103 106806.76 787858.64
 55882.482 98871.540 791897.45
 19046.689 94719.902 794144.42
 -19046.689 94719.902 794144.42
 -55882.482 98871.540 791897.45
 -88719.103 106806.76 787858.64
 -114317.70 117661.95 782998.80
 -128940.69 128940.69 778940.69
 117661.95 114317.70 782998.80
 105956.00 105956.00 785841.37
 83160.207 97022.955 789728.39
 52673.093 90307.723 793139.37
 17990.160 86772.784 795076.62
 -17990.160 86772.784 795076.62
 -52673.093 90307.723 793139.37
 -83160.207 97022.955 789728.39
 -105956.00 105956.00 785841.37
 -117661.95 114317.70 782998.80
 106806.76 88719.103 787858.64
 97022.955 83160.207 789728.39
 76847.260 76847.260 792583.75
 48953.295 71940.296 795253.52
 16761.379 69321.186 796814.68
 -16761.379 69321.186 796814.68
 -48953.295 71940.296 795253.52
 -76847.260 76847.260 792583.75
 -97022.955 83160.207 789728.39
 -106806.76 88719.103 787858.64
 98871.540 55882.482 791897.45
 90307.723 52673.093 793139.37
 71940.296 48953.295 795253.52
 46004.242 46004.242 797350.12
 15779.783 44412.254 798610.39
 -15779.783 44412.254 798610.39
 -46004.242 46004.242 797350.12
 -71940.296 48953.295 795253.52
 -90307.723 52673.093 793139.37
 -98871.540 55882.482 791897.45
 94719.902 19046.689 794144.42
 86772.784 17990.160 795076.62
 69321.186 16761.379 796814.68
 44412.254 15779.783 798610.39
 15246.974 15246.974 799709.36
 -15246.974 15246.974 799709.36
 -44412.254 15779.783 798610.39
 -69321.186 16761.379 796814.68
 -86772.784 17990.160 795076.62
 -94719.902 19046.689 794144.42
 94719.902 -19046.689 794144.42
 86772.784 -17990.160 795076.62
 69321.186 -16761.379 796814.68
 44412.254 -15779.783 798610.39
 15246.974 -15246.974 799709.36
 -15246.974 -15246.974 799709.36
 -44412.254 -15779.783 798610.39
 -69321.186 -16761.379 796814.68
 -86772.784 -17990.160 795076.62
 -94719.902 -19046.689 794144.42
 98871.540 -55882.482 791897.45
 90307.723 -52673.093 793139.37
 71940.296 -48953.295 795253.52
 46004.242 -46004.242 797350.12
 15779.783 -44412.254 798610.39
 -15779.783 -44412.254 798610.39
 -46004.242 -46004.242 797350.12
 -71940.296 -48953.295 795253.52
 -90307.723 -52673.093 793139.37
 -98871.540 -55882.482 791897.45
 106806.76 -88719.103 787858.64
 97022.955 -83160.207 789728.39
 76847.260 -76847.260 792583.75
 48953.295 -71940.296 795253.52
 16761.379 -69321.186 796814.68
 -16761.379 -69321.186 796814.68
 -48953.295 -71940.296 795253.52
 -76847.260 -76847.260 792583.75
 -97022.955 -83160.207 789728.39
 -106806.76 -88719.103 787858.64
 117661.95 -114317.70 782998.80
 105956.00 -105956.00 785841.37
 83160.207 -97022.955 789728.39
 52673.093 -90307.723 793139.37
 17990.160 -86772.784 795076.62
 -17990.160 -86772.784 795076.62
 -52673.093 -90307.723 793139.37
 -83160.207 -97022.955 789728.39
 -105956.00 -105956.00 785841.37
 -117661.95 -114317.70 782998.80
 128940.69 -128940.69 778940.69
 114317.70 -117661.95 782998.80
 88719.103 -106806.76 787858.64
 55882.482 -98871.540 791897.45
 19046.689 -94719.902 794144.42
 -19046.689 -94719.902 794144.42
 -55882.482 -98871.540 791897.45
 -88719.103 -106806.76 787858.64
 -114317.70 -117661.95 782998.80
 -128940.69 -128940.69 778940.69
 42543.702 42543.702 797734.33
 37411.788 38198.674 798211.26
 28790.076 33926.689 798761.61
 18020.579 30795.152 799203.93
 6121.7961 29162.710 799444.84
 -6121.7961 29162.710 799444.84
 -18020.579 30795.152 799203.93
 -28790.076 33926.689 798761.61
 -37411.788 38198.674 798211.26
 -42543.702 42543.702 797734.33
 38198.674 37411.788 798211.26
 34157.409 34157.409 798540.26
 26614.914 30627.645 798970.33
 16767.052 27969.291 799335.09
 5710.4978 26574.565 799538.11
 -5710.4978 26574.565 799538.11
 -16767.052 27969.291 799335.09
 -26614.914 30627.645 798970.33
 -34157.409 34157.409 798540.26
 -38198.674 37411.788 798211.26
 33926.689 28790.076 798761.61
 30627.645 26614.914 798970.33
 24113.934 24113.934 799272.82
 15294.482 22170.708 799546.46
 5224.8623 21137.896 799703.63
 -5224.8623 21137.896 799703.63
 -15294.482 22170.708 799546.46
 -24113.934 24113.934 799272.82
 -30627.645 26614.914 798970.33
 -33926.689 28790.076 798761.61
 30795.152 18020.579 799203.93
 27969.291 16767.052 799335.09
 22170.708 15294.482 799546.46
 14128.874 14128.874 799750.43
 4837.6420 13502.907 799871.41
 -4837.6420 13502.907 799871.41
 -14128.874 14128.874 799750.43
 -22170.708 15294.482 799546.46
 -27969.291 16767.052 799335.09
 -30795.152 18020.579 799203.93
 29162.710 6121.7961 799444.84
 26574.565 5710.4978 799538.11
 21137.896 5224.8623 799703.63
 13502.907 4837.6420 799871.41
 4628.6462 4628.6462 799973.22
 -4628.6462 4628.6462 799973.22
 -13502.907 4837.6420 799871.41
 -21137.896 5224.8623 799703.63
 -26574.565 5710.4978 799538.11
 -29162.710 6121.7961 799444.84
 29162.710 -6121.7961 799444.84
 26574.565 -5710.4978 799538.11
 21137.896 -5224.8623 799703.63
 13502.907 -4837.6420 799871.41
 4628.6462 -4628.6462 799973.22
 -4628.6462 -4628.6462 799973.22
 -13502.907 -4837.6420 799871.41
 -21137.896 -5224.8623 799703.63
 -26574.565 -5710.4978 799538.11
 -29162.710 -6121.7961 799444.84
 30795.152 -18020.579 799203.93
 27969.291 -16767.052 799335.09
 22170.708 -15294.482 799546.46
 14128.874 -14128.874 799750.43
 4837.6420 -13502.907 799871.41
 -4837.6420 -13502.907 799871.41
 -14128.874 -14128.874 799750.43
 -22170.708 -15294.482 799546.46
 -27969.291 -16767.052 799335.09
 -30795.152 -18020.579 799203.93
 33926.689 -28790.076 798761.61
 30627.645 -26614.914 798970.33
 24113.934 -24113.934 799272.82
 15294.482 -22170.708 799546.46
 5224.8623 -21137.896 799703.63
 -5224.8623 -21137.896 799703.63
 -15294.482 -22170.708 799546.46
 -24113.934 -24113.934 799272.82
 -30627.645 -26614.914 798970.33
 -33926.689 -28790.076 798761.61
 38198.674 -37411.788 798211.26
 34157.409 -34157.409 798540.26
 26614.914 -30627.645 798970.33
 16767.052 -27969.291 799335.09
 5710.4978 -26574.565 799538.11
 -5710.4978 -26574.565 799538.11
 -16767.052 -27969.291 799335.09
 -26614.914 -30627.645 798970.33
 -34157.409 -34157.409 798540.26
 -38198.674 -37411.788 798211.26
 42543.702 -42543.702 797734.33
 37411.788 -38198.674 798211.26
 28790.076 -33926.689 798761.61
 18020.579 -30795.152 799203.93
 6121.7961 -29162.710 799444.84
 -6121.7961 -29162.710 799444.84
 -18020.579 -30795.152 799203.93
 -28790.076 -33926.689 798761.61
 -37411.788 -38198.674 798211.26
 -42543.702 -42543.702 797734.33
 -42543.702 -42543.702 797734.33
 -37411.788 -38198.674 798211.26
 -28790.076 -33926.689 798761.61
 -18020.579 -30795.152 799203.93
 -6121.7961 -29162.710 799444.84
 6121.7961 -29162.710 799444.84
 18020.579 -30795.152 799203.93
 28790.076 -33926.689 798761.61
 37411.788 -38198.674 798211.26
 42543.702 -42543.702 797734.33
 -38198.674 -37411.788 798211.26
 -34157.409 -34157.409 798540.26
 -26614.914 -30627.645 798970.33
 -16767.052 -27969.291 799335.09
 -5710.4978 -26574.565 799538.11
 5710.4978 -26574.565 799538.11
 16767.052 -27969.291 799335.09
 26614.914 -30627.645 798970.33
 34157.409 -34157.409 798540.26
 38198.674 -37411.788 798211.26
 -33926.689 -28790.076 798761.61
 -30627.645 -26614.914 798970.33
 -24113.934 -24113.934 799272.82
 -15294.482 -22170.708 799546.46
 -5224.8623 -21137.896 799703.63
 5224.8623 -21137.896 799703.63
 15294.482 -22170.708 799546.46
 24113.934 -24113.934 799272.82
 30627.645 -26614.914 798970.33
 33926.689 -28790.076 798761.61
 -30795.152 -18020.579 799203.93
 -27969.291 -16767.052 799335.09
 -22170.708 -15294.482 799546.46
 -14128.874 -14128.874 799750.43
 -4837.6420 -13502.907 799871.41
 4837.6420 -13502.907 799871.41
 14128.874 -14128.874 799750.43
 22170.708 -15294.482 799546.46
 27969.291 -16767.052 799335.09
 30795.152 -18020.579 799203.93
 -29162.710 -6121.7961 799444.84
 -26574.565 -5710.4978 799538.11
 -21137.896 -5224.8623 799703.63
 -13502.907 -4837.6420 799871.41
 -4628.6462 -4628.6462 799973.22
 4628.6462 -4628.6462 799973.22
 13502.907 -4837.6420 799871.41
 21137.896 -5224.8623 799703.63
 26574.565 -5710.4978 799538.11
 29162.710 -6121.7961 799444.84
 -29162.710 6121.7961 799444.84
 -26574.565 5710.4978 799538.11
 -21137.896 5224.8623 799703.63
 -13502.907 4837.6420 799871.41
 -4628.6462 4628.6462 799973.22
 4628.6462 4628.6462 799973.22
 13502.907 4837.6420 799871.41
 21137.896 5224.8623 799703.63
 26574.565 5710.4978 799538.11
 29162.710 6121.7961 799444.84
 -30795.152 18020.579 799203.93
 -27969.291 16767.052 799335.09
 -22170.708 15294.482 799546.46
 -14128.874 14128.874 799750.43
 -4837.6420 13502.907 799871.41
 4837.6420 13502.907 799871.41
 14128.874 14128.874 799750.43
 22170.708 15294.482 799546.46
 27969.291 16767.052 799335.09
 30795.152 18020.579 799203.93
 -33926.689 28790.076 798761.61
 -30627.645 26614.914 798970.33
 -24113.934 24113.934 799272.82
 -15294.482 22170.708 799546.46
 -5224.8623 21137.896 799703.63
 5224.8623 21137.896 799703.63
 15294.482 22170.708 799546.46
 24113.934 24113.934 799272.82
 30627.645 26614.914 798970.33
 33926.689 28790.076 798761.61
 -38198.674 37411.788 798211.26
 -34157.409 34157.409 798540.26
 -26614.914 30627.645 798970.33
 -16767.052 27969.291 799335.09
 -5710.4978 26574.565 799538.11
 5710.4978 26574.565 799538.11
 16767.052 27969.291 799335.09
 26614.914 30627.645 798970.33
 34157.409 34157.409 798540.26
 38198.674 37411.788 798211.26
 -42543.702 42543.702 797734.33
 -37411.788 38198.674 798211.26
 -28790.076 33926.689 798761.61
 -18020.579 30795.152 799203.93
 -6121.7961 29162.710 799444.84
 6121.7961 29162.710 799444.84
 18020.579 30795.152 799203.93
 28790.076 33926.689 798761.61
 37411.788 38198.674 798211.26
 42543.702 42543.702 797734.33
 -128940.69 -128940.69 778940.69
 -114317.70 -117661.95 782998.80
 -88719.103 -106806.76 787858.64
 -55882.482 -98871.540 791897.45
 -19046.689 -94719.902 794144.42
 19046.689 -94719.902 794144.42
 55882.482 -98871.540 791897.45
 88719.103 -106806.76 787858.64
 114317.70 -117661.95 782998.80
 128940.69 -128940.69 778940.69
 -117661.95 -114317.70 782998.80
 -105956.00 -105956.00 785841.37
 -83160.207 -97022.955 789728.39
 -52673.093 -90307.723 793139.37
 -17990.160 -86772.784 795076.62
 17990.160 -86772.784 795076.62
 52673.093 -90307.723 793139.37
 83160.207 -97022.955 789728.39
 105956.00 -105956.00 785841.37
 117661.95 -114317.70 782998.80
 -106806.76 -88719.103 787858.64
 -97022.955 -83160.207 789728.39
 -76847.260 -76847.260 792583.75
 -48953.295 -71940.296 795253.52
 -16761.379 -69321.186 796814.68
 16761.379 -69321.186 796814.68
 48953.295 -71940.296 795253.52
 76847.260 -76847.260 792583.75
 97022.955 -83160.207 789728.39
 106806.76 -88719.103 787858.64
 -98871.540 -55882.482 791897.45
 -90307.723 -52673.093 793139.37
 -71940.296 -48953.295 795253.52
 -46004.242 -46004.242 797350.12
 -15779.783 -44412.254 798610.39
 15779.783 -44412.254 798610.39
 46004.242 -46004.242 797350.12
 71940.296 -48953.295 795253.52
 90307.723 -52673.093 793139.37
 98871.540 -55882.482 791897.45
 -94719.902 -19046.689 794144.42
 -86772.784 -17990.160 795076.62
 -69321.186 -16761.379 796814.68
 -44412.254 -15779.783 798610.39
 -15246.974 -15246.974 799709.36
 15246.974 -15246.974 799709.36
 44412.254 -15779.783 798610.39
 69321.186 -16761.379 796814.68
 86772.784 -17990.160 795076.62
 94719.902 -19046.689 794144.42
 -94719.902 19046.689 794144.42
 -86772.784 17990.160 795076.62
 -69321.186 16761.379 796814.68
 -44412.254 15779.783 798610.39
 -15246.974 15246.974 799709.36
 15246.974 15246.974 799709.36
 44412.254 15779.783 798610.39
 69321.186 16761.379 796814.68
 86772.784 17990.160 795076.62
 94719.902 19046.689 794144.42
 -98871.540 55882.482 791897.45
 -90307.723 52673.093 793139.37
 -71940.296 48953.295 795253.52
 -46004.242 46004.242 797350.12
 -15779.783 44412.254 798610.39
 15779.783 44412.254 798610.39
 46004.242 46004.242 797350.12
 71940.296 48953.295 795253.52
 90307.723 52673.093 793139.37
 98871.540 55882.482 791897.45
 -106806.76 88719.103 787858.64
 -97022.955 83160.207 789728.39
 -76847.260 76847.260 792583.75
 -48953.295 71940.296 795253.52
 -16761.379 69321.186 796814.68
 16761.379 69321.186 796814.68
 48953.295 71940.296 795253.52
 76847.260 76847.260 792583.75
 97022.955 83160.207 789728.39
 106806.76 88719.103 787858.64
 -117661.95 114317.70 782998.80
 -105956.00 105956.00 785841.37
 -83160.207 97022.955 789728.39
 -52673.093 90307.723 793139.37
 -17990.160 86772.784 795076.62
 17990.160 86772.784 795076.62
 52673.093 90307.723 793139.37
 83160.207 97022.955 789728.39
 105956.00 105956.00 785841.37
 117661.95 114317.70 782998.80
 -128940.69 128940.69 778940.69
 -114317.70 117661.95 782998.80
 -88719.103 106806.76 787858.64
 -55882.482 98871.540 791897.45
 -19046.689 94719.902 794144.42
 19046.689 94719.902 794144.42
 55882.482 98871.540 791897.45
 88719.103 106806.76 787858.64
 114317.70 117661.95 782998.80
 128940.69 128940.69 778940.69
 -215363.59 -215363.59 739754.72
 -193585.74 -202499.68 749345.34
 -152419.08 -191024.44 761759.86
 -97099.222 -182812.04 772755.78
 -33301.245 -178508.38 779118.60
 33301.245 -178508.38 779118.60
 97099.222 -182812.04 772755.78
 152419.08 -191024.44 761759.86
 193585.74 -202499.68 749345.34
 215363.59 -215363.59 739754.72
 -202499.68 -193585.74 749345.34
 -184592.03 -184592.03 756208.68
 -146750.13 -175473.92 766598.53
 -93906.712 -168721.72 776346.90
 -32256.127 -165158.19 782101.22
 32256.127 -165158.19 782101.22
 93906.712 -168721.72 776346.90
 146750.13 -175473.92 766598.53
 184592.03 -184592.03 756208.68
 202499.68 -193585.74 749345.34
 -191024.44 -152419.08 761759.86
 -175473.92 -146750.13 766598.53
 -140546.23 -140546.23 774915.16
 -90335.658 -135735.83 783208.31
 -31086.767 -133145.94 788229.52
 31086.767 -133145.94 788229.52
 90335.658 -135735.83 783208.31
 140546.23 -140546.23 774915.16
 175473.92 -146750.13 766598.53
 191024.44 -152419.08 761759.86
 -182812.04 -97099.222 772755.78
 -168721.72 -93906.712 776346.90
 -135735.83 -90335.658 783208.31
 -87485.295 -87485.295 790375.00
 -30142.605 -85923.316 794800.99
 30142.605 -85923.316 794800.99
 87485.295 -87485.295 790375.00
 135735.83 -90335.658 783208.31
 168721.72 -93906.712 776346.90
 182812.04 -97099.222 772755.78
 -178508.38 -33301.245 779118.60
 -165158.19 -32256.127 782101.22
 -133145.94 -31086.767 788229.52
 -85923.316 -30142.605 794800.99
 -29620.531 -29620.531 798902.53
 29620.531 -29620.531 798902.53
 85923.316 -30142.605 794800.99
 133145.94 -31086.767 788229.52
 165158.19 -32256.127 782101.22
 178508.38 -33301.245 779118.60
 -178508.38 33301.245 779118.60
 -165158.19 32256.127 782101.22
 -133145.94 31086.767 788229.52
 -85923.316 30142.605 794800.99
 -29620.531 29620.531 798902.53
 29620.531 29620.531 798902.53
 85923.316 30142.605 794800.99
 133145.94 31086.767 788229.52
 165158.19 32256.127 782101.22
 178508.38 33301.245 779118.60
 -182812.04 97099.222 772755.78
 -168721.72 93906.712 776346.90
 -135735.83 90335.658 783208.31
 -87485.295 87485.295 790375.00
 -30142.605 85923.316 794800.99
 30142.605 85923.316 794800.99
 87485.295 87485.295 790375.00
 135735.83 90335.658 783208.31
 168721.72 93906.712 776346.90
 182812.04 97099.222 772755.78
 -191024.44 152419.08 761759.86
 -175473.92 146750.13 766598.53
 -140546.23 140546.23 774915.16
 -90335.658 135735.83 783208.31
 -31086.767 133145.94 788229.52
 31086.767 133145.94 788229.52
 90335.658 135735.83 783208.31
 140546.23 140546.23 774915.16
 175473.92 146750.13 766598.53
 191024.44 152419.08 761759.86
 -202499.68 193585.74 749345.34
 -184592.03 184592.03 756208.68
 -146750.13 175473.92 766598.53
 -93906.712 168721.72 776346.90
 -32256.127 165158.19 782101.22
 32256.127 165158.19 782101.22
 93906.712 168721.72 776346.90
 146750.13 175473.92 766598.53
 184592.03 184592.03 756208.68
 202499.68 193585.74 749345.34
 -215363.59 215363.59 739754.72
 -193585.74 202499.68 749345.34
 -152419.08 191024.44 761759.86
 -97099.222 182812.04 772755.78
 -33301.245 178508.38 779118.60
 33301.245 178508.38 779118.60
 97099.222 182812.04 772755.78
 152419.08 191024.44 761759.86
 193585.74 202499.68 749345.34
 215363.59 215363.59 739754.72
 -292385.69 -292385.69 684851.23
 -266050.15 -285711.88 698273.61
 -212409.99 -281757.85 717979.46
 -137040.05 -279599.20 736915.41
 -47359.505 -278616.02 748418.46
 47359.505 -278616.02 748418.46
 137040.05 -279599.20 736915.41
 212409.99 -281757.85 717979.46
 266050.15 -285711.88 698273.61
 292385.69 -292385.69 684851.23
 -285711.88 -266050.15 698273.61
 -263368.30 -263368.30 708007.26
 -212170.90 -261675.65 725609.65
 -137507.71 -260908.63 743652.01
 -47605.732 -260640.01 754851.29
 47605.732 -260640.01 754851.29
 137507.71 -260908.63 743652.01
 212170.90 -261675.65 725609.65
 263368.30 -263368.30 708007.26
 285711.88 -266050.15 698273.61
 -281757.85 -212409.99 717979.46
 -261675.65 -212170.90 725609.65
 -212317.33 -212317.33 741513.79
 -138229.38 -212634.19 758735.35
 -47955.049 -212873.69 769665.58
 47955.049 -212873.69 769665.58
 138229.38 -212634.19 758735.35
 212317.33 -212317.33 741513.79
 261675.65 -212170.90 725609.65
 281757.85 -212409.99 717979.46
 -279599.20 -137040.05 736915.41
 -260908.63 -137507.71 743652.01
 -212634.19 -138229.38 758735.35
 -138848.34 -138848.34 775527.10
 -48238.604 -139201.80 786317.94
 48238.604 -139201.80 786317.94
 138848.34 -138848.34 775527.10
 212634.19 -138229.38 758735.35
 260908.63 -137507.71 743652.01
 279599.20 -137040.05 736915.41
 -278616.02 -47359.505 748418.46
 -260640.01 -47605.732 754851.29
 -212873.69 -47955.049 769665.58
 -139201.80 -48238.604 786317.94
 -48394.184 -48394.184 797067.13
 48394.184 -48394.184 797067.13
 139201.80 -48238.604 786317.94
 212873.69 -47955.049 769665.58
 260640.01 -47605.732 754851.29
 278616.02 -47359.505 748418.46
 -278616.02 47359.505 748418.46
 -260640.01 47605.732 754851.29
 -212873.69 47955.049 769665.58
 -139201.80 48238.604 786317.94
 -48394.184 48394.184 797067.13
 48394.184 48394.184 797067.13
 139201.80 48238.604 786317.94
 212873.69 47955.049 769665.58
 260640.01 47605.732 754851.29
 278616.02 47359.505 748418.46
 -279599.20 137040.05 736915.41
 -260908.63 137507.71 743652.01
 -212634.19 138229.38 758735.35
 -138848.34 138848.34 775527.10
 -48238.604 139201.80 786317.94
 48238.604 139201.80 786317.94
 138848.34 138848.34 775527.10
 212634.19 138229.38 758735.35
 260908.63 137507.71 743652.01
 279599.20 137040.05 736915.41
 -281757.85 212409.99 717979.46
 -261675.65 212170.90 725609.65
 -212317.33 212317.33 741513.79
 -138229.38 212634.19 758735.35
 -47955.049 212873.69 769665.58
 47955.049 212873.69 769665.58
 138229.38 212634.19 758735.35
 212317.33 212317.33 741513.79
 261675.65 212170.90 725609.65
 281757.85 212409.99 717979.46
 -285711.88 266050.15 698273.61
 -263368.30 263368.30 708007.26
 -212170.90 261675.65 725609.65
 -137507.71 260908.63 743652.01
 -47605.732 260640.01 754851.29
 47605.732 260640.01 754851.29
 137507.71 260908.63 743652.01
 212170.90 261675.65 725609.65
 263368.30 263368.30 708007.26
 285711.88 266050.15 698273.61
 -292385.69 292385.69 684851.23
 -266050.15 285711.88 698273.61
 -212409.99 281757.85 717979.46
 -137040.05 279599.20 736915.41
 -47359.505 278616.02 748418.46
 47359.505 278616.02 748418.46
 137040.05 279599.20 736915.41
 212409.99 281757.85 717979.46
 266050.15 285711.88 698273.61
 292385.69 292385.69 684851.23
 -345373.35 -345373.35 633588.59
 -313816.44 -350412.95 647093.51
 -251862.29 -357339.72 669980.38
 -163858.14 -363743.53 693427.11
 -56967.075 -367631.12 708238.74
 56967.075 -367631.12 708238.74
 163858.14 -363743.53 693427.11
 251862.29 -357339.72 669980.38