# ODT 1.0
# Table Start
# Title: mmArchive Data Table, Tue Aug 09 12:37:22 BST 2016
# Columns: {Oxs_CGEvolve:evolver:Max mxHxm} {Oxs_CGEvolve:evolver:Total energy} {Oxs_CGEvolve:evolver:Delta E} {Oxs_CGEvolve:evolver:Bracket count} {Oxs_CGEvolve:evolver:Line min count} {Oxs_CGEvolve:evolver:Conjugate cycle count} {Oxs_CGEvolve:evolver:Cycle count} {Oxs_CGEvolve:evolver:Cycle sub count} {Oxs_CGEvolve:evolver:Energy calc count} Oxs_UniformExchange::Energy {Oxs_UniformExchange::Max Spin Ang} {Oxs_UniformExchange::Stage Max Spin Ang} {Oxs_UniformExchange::Run Max Spin Ang} Oxs_Demag::Energy    Oxs_MinDriver::Iteration {Oxs_MinDriver::Stage iteration} Oxs_MinDriver::Stage Oxs_MinDriver::mx    Oxs_MinDriver::my    Oxs_MinDriver::mz   
# Units:                 A/m                                 J                                J                                 {}                                   {}                                        {}                                      {}                                   {}                                      {}                                 J                              deg                                    deg                                      deg                           J                       {}                           {}                         {}                 {}                   {}                   {}           
                  258375.67345930982                1.6755160819145568e-17               1.6755160819145568e-17               0                                    0                                         1                                       1                                    0                                       1                                 0                               0                                      0                                        0                              1.6755160819145565e-17    0                            0                          0                    0                    0                    1                  
                  257523.81452750223                1.6750659097041205e-17              -4.5017221043628462e-21               1                                    0                                         1                                       1                                    0                                       2                                 2.6097045270259816e-24             0.021429026023486054                    0.021429026023486054                      0.021429026023486054            1.6750656487336686e-17    1                            1                          0                   -8.9528384705772624e-21 -3.4106051316484813e-21  0.99999993945668286
                  197402.83244205776                1.5990982857052273e-17              -7.5967623998893173e-19               2                                    0                                         1                                       1                                    0                                       3                                 1.0429438171240762e-19             4.250106924652763                      4.250106924652763                        4.250106924652763              1.5886688475339873e-17    2                            2                          0                   -1.5097612049430609e-18 -2.9103830456733704e-19  0.99755929593966131
                  221381.5643855349                 1.54673752164234e-17              -5.2360764062887257e-19               3                                    0                                         2                                       2                                    0                                       4                                 2.8992248378976119e-19             5.8010838869987991                     5.8010838869987991                       5.8010838869987991             1.5177452732633636e-17    3                            3                          0                   -7.2759576141834261e-20  7.5669959187507629e-18  0.99116117918517765
                  229097.53344432887                1.544960940694788e-17              -1.7765809475520237e-20               4                                    0                                         2                                       2                                    0                                       5                                 3.0422050949423489e-19             5.9832411163282018                     5.9832411163282018                       5.9832411163282018             1.5145388897453642e-17    4                            4                          0                    9.094947017729282e-19  4.6566128730773927e-18  0.99075479171474889
                  589594.59520542203                1.5378182437820372e-17              -7.1426969127508018e-20               5                                    0                                         3                                       3                                    0                                       6                                 6.9502398411076325e-19             11.161884829122144                     11.161884829122144                       11.161884829122144             1.468315845370961e-17    5                            5                          0                   -8.3673512563109396e-19  8.1490725278854376e-18  0.98391294771719173
                  325257.09711608017                1.5301374438511588e-17              -7.6807999308783928e-20               5                                    1                                         3                                       3                                    0                                       7                                 4.3148126478991475e-19             7.1691411395222637                     11.161884829122144                       11.161884829122144             1.486989317372167e-17    6                            6                          0                   -9.094947017729282e-19  5.8207660913467408e-19  0.98714076732191292
                  236201.08759162552                1.5020636083532875e-17              -2.8073835497871323e-19               6                                    1                                         3                                       4                                    1                                       8                                 7.7369166221208174e-19             9.1611705830857666                     11.161884829122144                       11.161884829122144             1.424694442132079e-17    7                            7                          0                    0                    0                    0.97541883223556758
                  286658.91692349914                1.5004428788917076e-17              -1.6207294615798697e-20               7                                    1                                         3                                       4                                    1                                       9                                 8.5038808499558423e-19             9.5263379331973557                     11.161884829122144                       11.161884829122144             1.4154040703921487e-17    8                            8                          0                   -1.4551915228366852e-19  1.1641532182693482e-18  0.97320397894506794
                  160652.49031539779                1.4921992924214349e-17              -8.243586470272787e-20               8                                    2                                         4                                       5                                    0                                       11                                8.0888960139683928e-19             8.1457450000100824                     11.161884829122144                       11.161884829122144             1.4113103322817505e-17    9                            9                          0                   -3.6379788070917128e-19  8.1490725278854376e-18  0.97224654775074382
                  116369.48469586694                1.4895687877124572e-17              -2.6305047089776263e-20               9                                    2                                         4                                       6                                    1                                       12                                8.4461366070535663e-19             8.1566022268453224                     11.161884829122144                       11.161884829122144             1.405107421641922e-17    10                           10                         0                    5.0931703299283985e-19  8.1490725278854376e-18  0.97056683690592904
                  89077.80344297034                 1.4869383835306542e-17              -2.6304041818030403e-20               11                                   2                                         4                                       7                                    2                                       14                                9.266915034830042e-19             8.2884158501683896                     11.161884829122144                       11.161884829122144             1.3942692331823536e-17    11                           11                         0                   -1.2369127944111825e-18  3.4924596548080449e-18  0.96756683462638315
                  118406.30121814681                1.4867084560335129e-17              -2.299274971413101e-21               12                                   3                                         4                                       7                                    2                                       16                                9.6668636534224261e-19             8.6658770343408555                     11.161884829122144                       11.161884829122144             1.3900398194992883e-17    12                           12                         0                    1.7462298274040224e-18  6.9849193096160898e-18  0.9663302789490128 
                  170540.3718185809                 1.4844259076095243e-17              -2.2825484239885943e-20               13                                   3                                         4                                       8                                    3                                       17                                1.3626800000974363e-18             10.252528753091385                     11.161884829122144                       11.161884829122144             1.3481579075997806e-17    13                           13                         0                    4.292814992368221e-18  1.0477378964424133e-17  0.95246938323140173
                  65664.713635982742                1.4826299168157413e-17              -1.7959907937829726e-20               13                                   4                                         4                                       8                                    3                                       18                                1.1826663395284803e-18             9.1295287915645869                     11.161884829122144                       11.161884829122144             1.3643632828628941e-17    14                           14                         0                    2.3283064365386963e-18  3.4924596548080449e-18  0.95829255930349133
                  38042.313897050619                1.4813334472340571e-17              -1.2964695816841935e-20               14                                   5                                         4                                       9                                    4                                       20                                1.2577195089927834e-18             9.4405729122734101                     11.161884829122144                       11.161884829122144             1.355561496334779e-17    15                           15                         0                    3.1286617740988732e-18  1.1641532182693482e-18  0.95527889969028312
                  36487.76358290272                 1.481014903721088e-17              -3.1854351296907957e-21               15                                   5                                         4                                       10                                   5                                       21                                1.2942119405565535e-18             9.3801218883701321                     11.161884829122144                       11.161884829122144             1.3515937096654318e-17    16                           16                         0                    2.8376234695315363e-18  3.4924596548080449e-18  0.95385656522058504
                  19799.620931196867                1.4809446436763718e-17              -7.0260044716268992e-22               15                                   6                                         4                                       10                                   5                                       22                                1.2817838284720609e-18             9.3142818984153433                     11.161884829122144                       11.161884829122144             1.3527662608291656e-17    17                           17                         0                    3.7834979593753815e-18  1.280568540096283e-17  0.95428551637717662
                  13231.24705696477                 1.4809034054664043e-17              -4.1238209967451878e-22               16                                   6                                         4                                       11                                   6                                       23                                1.2871375651113574e-18             9.498679427038434                      11.161884829122144                       11.161884829122144             1.3521896489552683e-17    18                           18                         0                    1.3096723705530166e-18  8.1490725278854376e-18  0.95407503282397632
                  8367.6936996732384                1.4808912801290544e-17              -1.2125337349869035e-22               16                                   7                                         4                                       11                                   6                                       24                                1.2851661300482353e-18             9.3951623556655548                     11.161884829122144                       11.161884829122144             1.3523746671242307e-17    19                           19                         0                    2.3283064365386963e-18  3.4924596548080449e-18  0.95414337594586796
                  4683.6078165602084                1.4808807130624429e-17              -1.056706661157324e-22               17                                   7                                         4                                       12                                   7                                       25                                1.2857039136769256e-18             9.5205385514395253                     11.161884829122144                       11.161884829122144             1.3523103216947505e-17    20                           20                         0                    3.7107383832335471e-18  9.3132257461547854e-18  0.9541182413053344 
                  4308.917779863049                 1.4808806834787726e-17              -2.958367030719911e-25               17                                   8                                         4                                       12                                   7                                       26                                1.2856716599511214e-18             9.5142465659892643                     11.161884829122144                       11.161884829122144             1.3523135174836607e-17    21                           21                         0                    2.0372681319713594e-18  1.280568540096283e-17  0.95411951227680303
                  3306.2895547040757                1.4808779834013224e-17              -2.700077450185712e-23               18                                   8                                         4                                       13                                   8                                       27                                1.285547943221223e-18             9.5516601924438991                     11.161884829122144                       11.161884829122144             1.3523231890791996e-17    22                           22                         0                    4.1472958400845531e-18  1.396983861923218e-17  0.95412015821308582
                  2615.6882303353091                1.4808778700549452e-17              -1.133463772266041e-24               18                                   9                                         4                                       13                                   8                                       28                                1.285563282793156e-18             9.5454059775535018                     11.161884829122144                       11.161884829122144             1.3523215417756294e-17    23                           23                         0                    2.9831426218152046e-18  1.5133991837501526e-17  0.95412006093373036
                  2825.6388285430494                1.4808766302878475e-17              -1.2397670976417309e-23               19                                   9                                         4                                       14                                   9                                       29                                1.2852124633835999e-18             9.5415549647935958                     11.161884829122144                       11.161884829122144             1.3523553839494872e-17    24                           24                         0                    2.1100277081131937e-18  1.1641532182693481e-17  0.95412935799375043
                  3599.7027079028962                1.4808766068517228e-17              -2.3436124727725595e-25               20                                   10                                        4                                       14                                   9                                       31                                1.28515878879535e-18             9.5409477073390168                     11.161884829122144                       11.161884829122144             1.3523607279721876e-17    25                           25                         0                    3.2741809263825419e-18  1.396983861923218e-17  0.95413081911924225
                  2166.6649648596131                1.4808755053408635e-17              -1.1015108593028141e-23               21                                   10                                        4                                       15                                   10                                      32                                1.2843703166706751e-18             9.5349858760605066                     11.161884829122144                       11.161884829122144             1.3524384736737961e-17    26                           26                         0                    4.5838532969355583e-18  4.6566128730773927e-18  0.95415374685509813
                  1821.2481113488607                1.4808754904444634e-17              -1.489640005325616e-25               21                                   11                                        4                                       15                                   10                                      33                                1.2844507529504536e-18             9.5356032351778008                     11.161884829122144                       11.161884829122144             1.3524304151494177e-17    27                           27                         0                    2.546585164964199e-18  4.6566128730773927e-18  0.9541513786567577 
                  1641.2596787979628                1.480875044682775e-17              -4.457616884126147e-24               22                                   11                                        4                                       16                                   11                                      34                                1.2836371677929017e-18             9.5416979792117456                     11.161884829122144                       11.161884829122144             1.3525113279034844e-17    28                           28                         0                    4.3655745685100553e-18  1.0477378964424133e-17  0.95417701900025664
                  780.85238871440868                1.4808749553009419e-17              -8.9381833097069837e-25               22                                   12                                        4                                       16                                   11                                      35                                1.2838711478679492e-18             9.5399297830438439                     11.161884829122144                       11.161884829122144             1.352487840514147e-17    29                           29                         0                    5.0931703299283979e-18  1.0477378964424133e-17  0.95416958941479835
                  993.13050628341216                1.480874824903804e-17              -1.3039713792309138e-24               23                                   12                                        4                                       17                                   12                                      36                                1.2833636005767829e-18             9.5521570572553376                     11.161884829122144                       11.161884829122144             1.352538464846126e-17    30                           30                         0                    4.0017766878008845e-18  2.3283064365386963e-18  0.95418675486956439
                  437.53901169645013                1.4808747873580031e-17              -3.7545800887627036e-25               23                                   13                                        4                                       17                                   12                                      37                                1.2835257870764623e-18             9.5482317136290344                     11.161884829122144                       11.161884829122144             1.3525222086503564e-17    31                           31                         0                    4.5838532969355583e-18  9.3132257461547854e-18  0.95418124660083115
                  535.71887700694163                1.4808747189412591e-17              -6.8416743972578317e-25               24                                   13                                        4                                       18                                   13                                      38                                1.2832134764819358e-18             9.5502052846859016                     11.161884829122144                       11.161884829122144             1.3525533712930657e-17    32                           32                         0                    5.1659299060702322e-18  9.3132257461547854e-18  0.95419256973760125
                  510.23236331049628                1.4808747188635286e-17              -7.7730532555468839e-28               24                                   14                                        4                                       18                                   13                                      39                                1.2832236331848707e-18             9.5501409649317033                     11.161884829122144                       11.161884829122144             1.3525523555450415e-17    33                           33                         0                    5.2386894822120666e-18  6.9849193096160898e-18  0.95419220078667999
                  598.63666242873444                1.4808746844325974e-17              -3.4430931218067383e-25               25                                   14                                        4                                       19                                   14                                      40                                1.2828582832539291e-18             9.5481142268256303                     11.161884829122144                       11.161884829122144             1.3525888561072041e-17    34                           34                         0                    6.6938810050487517e-18  1.280568540096283e-17  0.95420638251655265
                  354.99296006138337                1.4808746814464168e-17              -2.9861805714196529e-26               25                                   15                                        4                                       19                                   14                                      41                                1.2829386640987812e-18             9.5485606680363677                     11.161884829122144                       11.161884829122144             1.3525808150365386e-17    35                           35                         0                    8.0763129517436025e-18  5.8207660913467405e-18  0.95420325903363568
                  263.27199344982074                1.4808746517748665e-17              -2.9671550336487104e-25               26                                   15                                        4                                       20                                   15                                      42                                1.2825765346673391e-18             9.5442594236160065                     11.161884829122144                       11.161884829122144             1.3526169983081327e-17    36                           36                         0                    9.0949470177292831e-18  9.3132257461547854e-18  0.95421804775499552
                  220.45715154230544                1.4808746515223185e-17              -2.5254796397947599e-27               26                                   16                                        4                                       20                                   15                                      43                                1.2826069793884817e-18             9.5446213255657089                     11.161884829122144                       11.161884829122144             1.3526139535834698e-17    37                           37                         0                    7.7852746471762651e-18  1.280568540096283e-17  0.95421680359819072
                  320.19176725989485                1.4808746334772692e-17              -1.80450493014452e-25               27                                   16                                        4                                       21                                   16                                      44                                1.2822723767842746e-18             9.5419388964136456                     11.161884829122144                       11.161884829122144             1.3526473957988421e-17    38                           38                         0                    9.3132257461547854e-18  4.6566128730773927e-18  0.95423078805495443
                  244.2226841666463                 1.480874632981721e-17              -4.9554824581544893e-27               27                                   17                                        4                                       21                                   16                                      45                                1.2823193658954912e-18             9.5423158177630238                     11.161884829122144                       11.161884829122144             1.3526426963921716e-17    39                           39                         0                    1.0040821507573129e-17  9.3132257461547854e-18  0.95422882320842328
                  291.43580073688338                1.4808746255907617e-17              -7.3909592316393538e-26               28                                   17                                        4                                       22                                   17                                      46                                1.2818466212204793e-18             9.5396889635437585                     11.161884829122144                       11.161884829122144             1.3526899634687138e-17    40                           40                         0                    9.022187441587448e-18  1.5133991837501526e-17  0.95424816699186266
                  139.33087718276155                1.4808746181836937e-17              -7.4070680178429997e-26               28                                   18                                        4                                       22                                   17                                      47                                1.2820424082113056e-18             9.5407773881072568                     11.161884829122144                       11.161884829122144             1.3526703773625624e-17    41                           41                         0                    1.0040821507573129e-17  1.5133991837501526e-17  0.95424015266793316